# vtk DataFile Version 3.0
Cubed Sphere AHF mesh. Centered at (0,0,0) with radius 1.0. Scaling is (26,31,43).
ASCII
DATASET UNSTRUCTURED_GRID
POINTS 6122 double
-0.5773502691896258 -0.5773502691896258 -0.5773502691896258
-0.5453054798270401 -0.5927233476380871 -0.5927233476380871
-0.5106784022400873 -0.6079504788572468 -0.6079504788572468
-0.4733755587428927 -0.6228625772932799 -0.6228625772932799
-0.4333408306443944 -0.6372659274182272 -0.6372659274182272
-0.3905667329424716 -0.6509445549041193 -0.6509445549041193
-0.3451057175812343 -0.6636648415023736 -0.6636648415023736
-0.2970803711120493 -0.6751826616182939 -0.6751826616182939
-0.2466911001090793 -0.6852530558585538 -0.6852530558585538
-0.1942197829662521 -0.6936420820223287 -0.6936420820223287
-0.1400280084028009 -0.7001400420140049 -0.7001400420140049
-0.0845489833163312 -0.7045748609694270 -0.7045748609694270
-0.0282729643226657 -0.7068241080666424 -0.7068241080666424
0.0282729643226657 -0.7068241080666424 -0.7068241080666424
0.0845489833163313 -0.7045748609694270 -0.7045748609694270
0.1400280084028009 -0.7001400420140049 -0.7001400420140049
0.1942197829662521 -0.6936420820223287 -0.6936420820223287
0.2466911001090794 -0.6852530558585538 -0.6852530558585538
0.2970803711120493 -0.6751826616182939 -0.6751826616182939
0.3451057175812343 -0.6636648415023736 -0.6636648415023736
0.3905667329424716 -0.6509445549041193 -0.6509445549041193
0.4333408306443944 -0.6372659274182272 -0.6372659274182272
0.4733755587428927 -0.6228625772932799 -0.6228625772932799
0.5106784022400874 -0.6079504788572468 -0.6079504788572468
0.5453054798270401 -0.5927233476380871 -0.5927233476380871
0.5773502691896258 -0.5773502691896258 -0.5773502691896258
-0.5901671065234753 -0.5508226327552436 -0.5901671065234753
-0.5580873300926511 -0.5661755522679068 -0.6066166631441859
-0.5232948021711106 -0.5814386690790118 -0.6229700025846554
-0.4856739571789540 -0.5964417017987154 -0.6390446804986236
-0.4451475384029587 -0.6109868174158257 -0.6546287329455276
-0.4016896584097066 -0.6248505797484324 -0.6694827640161776
-0.3553392469295144 -0.6377883919247693 -0.6833447056336814
-0.3062125802585404 -0.6495418369120555 -0.6959376824057737
-0.2545131984575423 -0.6598490330380726 -0.7069811068265064
-0.2005373048864061 -0.6684576829546871 -0.7162046603085933
-0.1446728466511236 -0.6751399510385769 -0.7233642332556182
-0.0873909978098921 -0.6797077607436051 -0.7282583150824340
-0.0292297161343920 -0.6820267098024788 -0.7307429033597987
0.0292297161343920 -0.6820267098024788 -0.7307429033597987
0.0873909978098922 -0.6797077607436051 -0.7282583150824340
0.1446728466511236 -0.6751399510385769 -0.7233642332556182
0.2005373048864061 -0.6684576829546871 -0.7162046603085933
0.2545131984575424 -0.6598490330380726 -0.7069811068265064
0.3062125802585404 -0.6495418369120555 -0.6959376824057737
0.3553392469295144 -0.6377883919247693 -0.6833447056336814
0.4016896584097066 -0.6248505797484324 -0.6694827640161776
0.4451475384029587 -0.6109868174158257 -0.6546287329455276
0.4856739571789540 -0.5964417017987154 -0.6390446804986236
0.5232948021711107 -0.5814386690790118 -0.6229700025846554
0.5580873300926511 -0.5661755522679069 -0.6066166631441861
0.5901671065234753 -0.5508226327552436 -0.5901671065234753
-0.6029009032936056 -0.5225141161877915 -0.6029009032936056
-0.5708330637716739 -0.5377412919588231 -0.6204707214909498
-0.5359228089098060 -0.5529362314148792 -0.6380033439402453
-0.4980303214504637 -0.5679293139347393 -0.6553030545400839
-0.4570545740103749 -0.5825205355034191 -0.6721390794270220
-0.4129483209670112 -0.5964809080634607 -0.6882472016116853
-0.3657339506566412 -0.6095565844277353 -0.7033345204935406
-0.3155187180367831 -0.6214762627997245 -0.7170879955381436
-0.2625073426113089 -0.6319621211012992 -0.7291870628091914
-0.2070096092711160 -0.6407440286963114 -0.7393200331111286
-0.1494406444160153 -0.6475761258027333 -0.7472032220800768
-0.0903121161329466 -0.6522541720712811 -0.7526009677745551
-0.0302137632210972 -0.6546315364571058 -0.7553440805274297
0.0302137632210972 -0.6546315364571058 -0.7553440805274297
0.0903121161329467 -0.6522541720712810 -0.7526009677745550
0.1494406444160153 -0.6475761258027333 -0.7472032220800768
0.2070096092711160 -0.6407440286963114 -0.7393200331111286
0.2625073426113090 -0.6319621211012992 -0.7291870628091914
0.3155187180367831 -0.6214762627997245 -0.7170879955381436
0.3657339506566412 -0.6095565844277353 -0.7033345204935406
0.4129483209670112 -0.5964809080634607 -0.6882472016116853
0.4570545740103749 -0.5825205355034191 -0.6721390794270220
0.4980303214504637 -0.5679293139347393 -0.6553030545400839
0.5359228089098060 -0.5529362314148791 -0.6380033439402452
0.5708330637716739 -0.5377412919588233 -0.6204707214909498
0.6029009032936056 -0.5225141161877915 -0.6029009032936056
-0.6154574548966637 -0.4923659639173310 -0.6154574548966637
-0.5834482328466172 -0.5073462894318410 -0.6341828617898012
-0.5484692825383486 -0.5223516976555702 -0.6529396220694627
-0.5103545438827409 -0.5372153093502536 -0.6715191366878169
-0.4689766702080084 -0.5517372590682453 -0.6896715738353065
-0.4242640687119285 -0.5656854249492380 -0.7071067811865475
-0.3762194021126012 -0.5787990801732327 -0.7234988502165408
-0.3249379051970651 -0.5907961912673911 -0.7384952390842390
-0.2706231506959186 -0.6013847793242636 -0.7517309741553295
-0.2135973691940737 -0.6102781976973535 -0.7628477471216918
-0.1543033499620919 -0.6172133998483676 -0.7715167498104595
-0.0932955620356684 -0.6219704135711229 -0.7774630169639036
-0.0312195270527232 -0.6243905410544627 -0.7804881763180783
0.0312195270527232 -0.6243905410544627 -0.7804881763180783
0.0932955620356685 -0.6219704135711229 -0.7774630169639036
0.1543033499620919 -0.6172133998483676 -0.7715167498104595
0.2135973691940737 -0.6102781976973535 -0.7628477471216918
0.2706231506959187 -0.6013847793242636 -0.7517309741553295
0.3249379051970651 -0.5907961912673911 -0.7384952390842390
0.3762194021126012 -0.5787990801732327 -0.7234988502165408
0.4242640687119286 -0.5656854249492380 -0.7071067811865475
0.4689766702080084 -0.5517372590682453 -0.6896715738353065
0.5103545438827409 -0.5372153093502536 -0.6715191366878169
0.5484692825383487 -0.5223516976555702 -0.6529396220694627
0.5834482328466172 -0.5073462894318411 -0.6341828617898013
0.6154574548966637 -0.4923659639173310 -0.6154574548966637
-0.6277304629780309 -0.4603356728505560 -0.6277304629780309
-0.5958247089012260 -0.4749327389792381 -0.6476355531535064
-0.5608259223603863 -0.4896099322193849 -0.6676499075718885
-0.5225400992337035 -0.5042053589097140 -0.6875527621496098
-0.4808112422931600 -0.5185219279632119 -0.7070753563134707
-0.4355405266462445 -0.5323273103454100 -0.7259008777437409
-0.3867076645417794 -0.5453569628153300 -0.7436685856572681
-0.3343926761375012 -0.5573211268958355 -0.7599833548579574
-0.2787953309324580 -0.5679164148624145 -0.7744314748123834
-0.2202487568747006 -0.5768419822908825 -0.7866027031239305
-0.1592234677302825 -0.5838193816777028 -0.7961173386514129
-0.0963186784844529 -0.5886141462938788 -0.8026556540371074
-0.0322394322356419 -0.5910562576534344 -0.8059858058910468
0.0322394322356419 -0.5910562576534344 -0.8059858058910468
0.0963186784844530 -0.5886141462938788 -0.8026556540371074
0.1592234677302825 -0.5838193816777028 -0.7961173386514129
0.2202487568747006 -0.5768419822908825 -0.7866027031239305
0.2787953309324581 -0.5679164148624145 -0.7744314748123834
0.3343926761375012 -0.5573211268958355 -0.7599833548579574
0.3867076645417794 -0.5453569628153300 -0.7436685856572681
0.4355405266462446 -0.5323273103454100 -0.7259008777437409
0.4808112422931600 -0.5185219279632119 -0.7070753563134707
0.5225400992337035 -0.5042053589097140 -0.6875527621496098
0.5608259223603864 -0.4896099322193849 -0.6676499075718885
0.5958247089012259 -0.4749327389792381 -0.6476355531535064
0.6277304629780309 -0.4603356728505560 -0.6277304629780309
-0.6396021490668312 -0.4264014327112209 -0.6396021490668312
-0.6078410511330209 -0.4404645298065369 -0.6606967947098052
-0.5728693240558332 -0.4546581936951058 -0.6819872905426586
-0.5344637366977384 -0.4688278392085425 -0.7032417588128137
-0.4924376836443181 -0.4827820427885473 -0.7241730641828209
-0.4466625002869186 -0.4962916669854652 -0.7444375004781977
-0.3970918542362820 -0.5090921208157462 -0.7636381812236192
-0.3437873053340942 -0.5208898565668095 -0.7813347848502142
-0.2869419235575686 -0.5313739325140160 -0.7970608987710239
-0.2268977867900989 -0.5402328256907115 -0.8103492385360672
-0.1641526965493748 -0.5471756551645828 -0.8207634827468742
-0.0993520318096899 -0.5519557322760548 -0.8279335984140821
-0.0332635939588429 -0.5543932326473807 -0.8315898489710709
0.0332635939588429 -0.5543932326473807 -0.8315898489710709
0.0993520318096899 -0.5519557322760548 -0.8279335984140821
0.1641526965493748 -0.5471756551645828 -0.8207634827468742
0.2268977867900989 -0.5402328256907115 -0.8103492385360672
0.2869419235575687 -0.5313739325140160 -0.7970608987710239
0.3437873053340942 -0.5208898565668095 -0.7813347848502142
0.3970918542362820 -0.5090921208157462 -0.7636381812236192
0.4466625002869187 -0.4962916669854652 -0.7444375004781977
0.4924376836443181 -0.4827820427885473 -0.7241730641828209
0.5344637366977384 -0.4688278392085425 -0.7032417588128137
0.5728693240558331 -0.4546581936951057 -0.6819872905426585
0.6078410511330209 -0.4404645298065369 -0.6606967947098054
0.6396021490668312 -0.4264014327112209 -0.6396021490668312
-0.6509445549041193 -0.3905667329424716 -0.6509445549041193
-0.6193636351492737 -0.4039328055321351 -0.6732213425535585
-0.5844618569909455 -0.4174727549935325 -0.6957879249892209
-0.5459860283811743 -0.4310416013535586 -0.7184026689225977
-0.5037175233040658 -0.4444566382094698 -0.7407610636824498
-0.4574957109978140 -0.4574957109978140 -0.7624928516630234
-0.4072454682898151 -0.4698986172574789 -0.7831643620957982
-0.3530067990931240 -0.4813729078542601 -0.8022881797571001
-0.2949630864050080 -0.4916051440083467 -0.8193419066805778
[...]
POINT_DATA 6122
SCALARS scalars double 1
LOOKUP_TABLE default
0.1151594116951443
0.0941816162705634
0.0752718154184533
0.0586916626283242
0.0445824130888848
0.0329529267985733
0.0236840051549426
0.0165491515814872
0.0112480083764978
0.0074456973150904
0.0048102569917937
0.0030417186130349
0.0018894484210538
0.0011578708435825
0.0007032740320124
0.0004254508967053
0.0002575995593441
0.0001568250992918
0.0000964000912852
0.0000600482762564
0.0000380165316830
0.0000245180940636
0.0000161343053805
0.0000108444307840
0.0000074484973800
0.0000052282292024
0.1128001099066833
0.0922025861688200
0.0735894092508521
0.0572424405454889
0.0433239335289501
0.0318609411373241
0.0227469112018865
0.0157613242601131
0.0106038548536866
0.0069358503729512
0.0044204164152272
0.0027536999433661
0.0016834127554702
0.0010146559612658
0.0006060995442498
0.0003607488368776
0.0002150887937249
0.0001291113189935
0.0000783790692055
0.0000483046750434
0.0000303157430563
0.0000194195242553
0.0000127168917955
0.0000085209220034
0.0000058438355347
0.0000041016053992
0.1094724292465417
0.0894193328295655
0.0712597375126025
0.0552897648662362
0.0416883298891381
0.0304982142663157
0.0216248719385229
0.0148546544145720
0.0098892852214466
0.0063890514521102
0.0040151539832282
0.0024628705558444
0.0014809931312963
0.0008775644908686
0.0005153421785718
0.0003017029998252
0.0001771203570243
0.0001048411766329
0.0000628734527600
0.0000383556392509
0.0000238777887084
0.0000152040078839
0.0000099165480506
0.0000066301764384
0.0000045447535319
0.0000031927354095
0.1051676626378521
0.0858193522503846
0.0682704942810779
0.0528243311281501
0.0396707334997974
0.0288644612750336
0.0203213575548637
0.0138350023118009
0.0091110940278663
0.0058118247455303
0.0035999494264890
0.0021733400484351
0.0012849555119954
0.0007482531116385
0.0004318567432296
0.0002486540708971
0.0001437441398037
0.0000839245018189
0.0000497428854952
0.0000300576293039
0.0000185764969223
0.0000117688333972
0.0000076532254129
0.0000051113640860
0.0000035056641254
0.0000024676723178
0.0999244027440488
0.0814296352034952
0.0646413621204614
0.0498619642006185
0.0372854146192097
0.0269735040680362
0.0188498559208971
0.0127150230438863
0.0082804145993588
0.0052132418668960
0.0031816007028678
0.0018897617511351
0.0010981774481258
0.0006282912751883
0.0003563514966837
0.0002018063059911
0.0001149085745717
0.0000662060294190
0.0000388104074032
0.0000232495859382
0.0000142795311435
0.0000090111481593
0.0000058494856949
0.0000039071954800
0.0000026845359228
0.0000018956440581
0.0938365052768055
0.0763241135617946
0.0604305271587016
0.0464489260742067
0.0345697742079125
0.0248560009483470
0.0172355209184397
0.0115149877071063
0.0074129835777086
0.0046048704770350
0.0027680395985323
0.0016171318111425
0.0009234882617506
0.0005190580575443
0.0002893339920954
0.0001612065587426
0.0000904579293216
0.0000514704766875
0.0000298693821189
0.0000177590462655
0.0000108529078197
0.0000068309525204
0.0000044323288970
0.0000029649551894
0.0000020434271396
0.0000014492918433
0.0870574718709142
0.0706281286578046
0.0557387855343214
0.0426653153990373
0.0315868433020138
0.0225610192916437
0.0155159354403256
0.0102629450803911
0.0065289377264390
0.0040004157908741
0.0023679671645595
0.0013604991426176
0.0007634771423799
0.0004216366044979
0.0002310658188971
0.0001267335575702
0.0000701372877075
0.0000394521684583
0.0000226925802073
0.0000134089775012
0.0000081655225980
0.0000051338328857
0.0000033347115024
0.0000022372673739
0.0000015488162394
0.0000011047657877
0.0797997232511831
0.0645184515039342
0.0507099102532910
0.0386254284691000
0.0284253944826844
0.0201557950390275
0.0137405506079731
0.0089939640714573
0.0056520147869086
0.0034150117388120
0.0019903115443351
0.0011246064022560
0.0006202903740539
0.0003367214587071
0.0001815346956402
0.0000981008646992
0.0000536058713581
0.0000298487418022
0.0000170427249552
0.0000100247665786
0.0000060933260434
0.0000038332396595
0.0000024966670327
0.0000016825632842
0.0000011717272548
0.0000008416865581
0.0723277400576141
0.0582178065678053
0.0455262877678293
0.0344742221523440
0.0251969875544227
0.0177232020150765
0.0119685131472872
0.0077483219789884
0.0048081287415074
0.0028641900524182
0.0016435567404054
0.0009135073053559
0.0004954496906555
0.0002645567415900
0.0001404516234014
0.0000748754385034
0.0000404581741825
0.0000223378049099
0.0000126835433377
0.0000074407508221
0.0000045228206303
0.0000028521646979
0.0000018659820067
0.0000012652492441
0.0000008876651190
0.0000006429917202
0.0649449335726576
0.0519836626027867
0.0403995511832681
0.0303796318643366
0.0220297779085050
0.0153568595132531
0.0102649058151044
0.0065687336750164
0.0040234476706900
0.0023626537253503
0.0013350439517053
0.0007302286281479
0.0003897299429179
0.0002049220573263
0.0001072779165038
0.0000565113686384
0.0000302510556573
0.0000165948857211
0.0000093902477136
0.0000055057244020
0.0000033536363099
0.0000021241450111
0.0000013984288621
0.0000009556022443
0.0000006763916833
0.0000004946929530
0.0579752121100498
0.0460921175583719
0.0355569179921260
0.0265213611436126
0.0190596387042337
0.0131543786673798
0.0086958504621256
0.0054970083187983
0.0033222831722791
0.0019230786503517
0.0010703889704334
0.0005765559133512
0.0003031314023293
0.0001571769177182
0.0000812820754925
0.0000423956333609
0.0000225338290867
0.0000123107552254
0.0000069584584567
0.0000040870104912
0.0000025000705339
0.0000015936031340
0.0000010576048780
0.0000007294445289
0.0000005215842197
0.0000003855746759
0.0517412369717056
0.0408187288902935
0.0312249097108737
0.0230776255488768
0.0164198726732116
0.0112098098136104
0.0073233202955735
0.0045707694956747
0.0027252326753854
0.0015552195627323
0.0008531662204762
0.0004530102788749
0.0002349675922043
0.0001203639204360
0.0000616207244412
0.0000319004159604
0.0000168778556115
0.0000092063650628
0.0000052108686839
0.0000030729242227
0.0000018916263221
0.0000012156147680
0.0000008144649029
0.0000005676650731
0.0000004104239366
0.0000003068656411
0.0465419782550758
0.0364187686005911
0.0276127294636650
0.0202118612797260
0.0142312119387159
0.0096066516899377
0.0062006834439029
0.0038209467131004
0.0022480164499905
0.0012655598831850
0.0006849645799513
0.0003590460691647
0.0001840652429437
0.0000933584179997
0.0000474329485067
0.0000244354218683
0.0000129024526872
0.0000070441982507
0.0000040013908952
0.0000023737165066
0.0000014727190195
0.0000009552566160
0.0000006466600160
0.0000004556629339
0.0000003331622330
0.0000002519130453
0.0426321583694826
0.0331093546755272
0.0248975246369556
0.0180613241018182
0.0125936753811605
0.0084126130859527
0.0053698029492410
0.0032705456291059
0.0019012714011648
0.0010576038951509
0.0005658237314665
0.0002934426633201
0.0001490454365493
0.0000750419680212
0.0000379350486019
0.0000194942052093
0.0000102950031064
0.0000056356533150
0.0000032170022415
0.0000019213231423
0.0000012018218735
0.0000007867221599
0.0000005378018794
0.0000003827854033
0.0000002827079824
0.0000002158845101
0.0402055300528740
0.0310552291596917
0.0232130522182224
0.0167287863267349
0.0115811546469873
0.0076766719798344
0.0048599591478910
0.0029347571956609
0.0016912386882192
0.0009326987003430
0.0004949401223190
0.0002548064219593
0.0001286334203977
0.0000644719822736
0.0000325037144034
0.0000166905166531
0.0000088246490807
0.0000048449202952
0.0000027778952481
0.0000016683961948
0.0000010503662480
0.0000006923978270
0.0000004767649031
0.0000003418247095
0.0000002542716367
0.0000001955179188
0.0393829712898299
0.0303589303606766
0.0226422137427415
0.0162775030913453
0.0112386282878112
0.0074281223034659
0.0046881641450091
0.0028219492668703
0.0016209393193355
0.0008910745511943
0.0004714344157433
0.0002420616200590
0.0001219361820150
0.0000610217939749
0.0000307391340072
0.0000157832443465
0.0000083503277779
0.0000045904029153
0.0000026367464023
0.0000015871382372
0.0000010017019474
0.0000006620705291
0.0000004571195309
0.0000003286235463
0.0000002450931073
0.0000001889335500
0.0402055300528740
0.0310552291596917
0.0232130522182224
0.0167287863267349
0.0115811546469873
0.0076766719798344
0.0048599591478910
0.0029347571956609
0.0016912386882192
0.0009326987003430
0.0004949401223190
0.0002548064219593
0.0001286334203977
0.0000644719822736
0.0000325037144034
0.0000166905166531
0.0000088246490807
0.0000048449202952
0.0000027778952481
0.0000016683961948
0.0000010503662480
0.0000006923978270
0.0000004767649031
0.0000003418247095
0.0000002542716367
0.0000001955179188
0.0426321583694826
0.0331093546755272
0.0248975246369556
0.0180613241018182
0.0125936753811605
0.0084126130859527
0.0053698029492410
0.0032705456291059
0.0019012714011648
0.0010576038951509
0.0005658237314665
0.0002934426633201
0.0001490454365493
0.0000750419680212
0.0000379350486019
0.0000194942052093
0.0000102950031064
0.0000056356533150
0.0000032170022415
0.0000019213231423
0.0000012018218735
0.0000007867221599
0.0000005378018794
0.0000003827854033
0.0000002827079824
0.0000002158845101
0.0465419782550758
0.0364187686005910
0.0276127294636650
0.0202118612797260
0.0142312119387159
0.0096066516899377
0.0062006834439029
0.0038209467131004
0.0022480164499905
0.0012655598831850
0.0006849645799513
0.0003590460691647
0.0001840652429437
0.0000933584179997
0.0000474329485067
0.0000244354218683
0.0000129024526872
0.0000070441982507
0.0000040013908952
0.0000023737165066
0.0000014727190195
0.0000009552566160
0.0000006466600160
0.0000004556629339
0.0000003331622330
0.0000002519130453
0.0517412369717056
0.0408187288902935
0.0312249097108737
0.0230776255488768
0.0164198726732116
0.0112098098136104
0.0073233202955735
0.0045707694956747
0.0027252326753854
0.0015552195627323
0.0008531662204762
0.0004530102788749
0.0002349675922043
0.0001203639204360
0.0000616207244412
0.0000319004159604
0.0000168778556115
0.0000092063650628
0.0000052108686839
0.0000030729242227
0.0000018916263221
0.0000012156147680
0.0000008144649029
0.0000005676650731
0.0000004104239366
0.0000003068656411
0.0579752121100498
0.0460921175583719
0.0355569179921260
0.0265213611436126
0.0190596387042337
0.0131543786673798
0.0086958504621256
0.0054970083187983
0.0033222831722791
0.0019230786503517
0.0010703889704334
0.0005765559133512
0.0003031314023293
0.0001571769177182
0.0000812820754925
0.0000423956333609
0.0000225338290867
0.0000123107552254
0.0000069584584567
0.0000040870104912
0.0000025000705339
0.0000015936031340
0.0000010576048780
0.0000007294445289
0.0000005215842197
0.0000003855746759
0.0649449335726576
0.0519836626027867
0.0403995511832681
0.0303796318643366
0.0220297779085050
0.0153568595132531
0.0102649058151044
0.0065687336750164
0.0040234476706900
0.0023626537253503
0.0013350439517053
0.0007302286281479
0.0003897299429179
0.0002049220573263
0.0001072779165038
0.0000565113686384
0.0000302510556573
0.0000165948857211
0.0000093902477136
0.0000055057244020
0.0000033536363099
0.0000021241450111
0.0000013984288621
0.0000009556022443
0.0000006763916833
0.0000004946929530
0.0723277400576141
0.0582178065678052
0.0455262877678293
0.0344742221523440
0.0251969875544227
0.0177232020150765
0.0119685131472872
0.0077483219789884
0.0048081287415074
0.0028641900524182
0.0016435567404054
0.0009135073053559
0.0004954496906555
0.0002645567415900
0.0001404516234014
0.0000748754385034
0.0000404581741825
0.0000223378049099
0.0000126835433377
0.0000074407508221
0.0000045228206303
0.0000028521646979
0.0000018659820067
0.0000012652492441
0.0000008876651190
0.0000006429917202
0.0797997232511831
0.0645184515039341
0.0507099102532910
0.0386254284691000
0.0284253944826844
0.0201557950390275
0.0137405506079731
0.0089939640714573
0.0056520147869086
0.0034150117388120
0.0019903115443351
0.0011246064022560
0.0006202903740539
0.0003367214587071
0.0001815346956402
0.0000981008646992
0.0000536058713581
0.0000298487418022
0.0000170427249552
0.0000100247665786
0.0000060933260434
0.0000038332396595
0.0000024966670327
0.0000016825632842
0.0000011717272548
0.0000008416865581
0.0870574718709142
0.0706281286578046
0.0557387855343215
0.0426653153990373
0.0315868433020138
0.0225610192916437
0.0155159354403256
0.0102629450803911
0.0065289377264390
0.0040004157908741
0.0023679671645595
0.0013604991426176
0.0007634771423799
0.0004216366044979
0.0002310658188971
0.0001267335575702
0.0000701372877075
0.0000394521684583
0.0000226925802073
0.0000134089775012
0.0000081655225980
0.0000051338328857
0.0000033347115024
0.0000022372673739
0.0000015488162394
0.0000011047657877
0.0938365052768055
0.0763241135617946
0.0604305271587016
0.0464489260742067
0.0345697742079125
0.0248560009483470
0.0172355209184397
0.0115149877071063
0.0074129835777086
0.0046048704770350
0.0027680395985323
0.0016171318111425
0.0009234882617506
0.0005190580575443
0.0002893339920954
0.0001612065587426
0.0000904579293216
0.0000514704766875
0.0000298693821189
0.0000177590462655
0.0000108529078197
0.0000068309525204
0.0000044323288970
0.0000029649551894
0.0000020434271396
0.0000014492918433
0.0999244027440488
0.0814296352034952
0.0646413621204615
0.0498619642006185
0.0372854146192097
0.0269735040680362
0.0188498559208971
0.0127150230438863
0.0082804145993588
0.0052132418668960
0.0031816007028678
0.0018897617511351
0.0010981774481258
0.0006282912751883
0.0003563514966837
0.0002018063059911
0.0001149085745717
0.0000662060294190
0.0000388104074032
0.0000232495859382
0.0000142795311435
0.0000090111481593
0.0000058494856949
0.0000039071954800
0.0000026845359228
0.0000018956440581
0.1051676626378521
0.0858193522503846
0.0682704942810779
0.0528243311281501
0.0396707334997974
0.0288644612750336
0.0203213575548637
0.0138350023118009
0.0091110940278663
0.0058118247455303
0.0035999494264890
0.0021733400484351
0.0012849555119954
0.0007482531116385
0.0004318567432296
0.0002486540708971
0.0001437441398037
0.0000839245018189
0.0000497428854952
0.0000300576293039
0.0000185764969223
0.0000117688333972
0.0000076532254129
0.0000051113640860
0.0000035056641254
0.0000024676723178
0.1094724292465417
0.0894193328295655
0.0712597375126025
0.0552897648662363
0.0416883298891381
0.0304982142663158
0.0216248719385229
0.0148546544145720
0.0098892852214466
0.0063890514521102
0.0040151539832282
0.0024628705558444
0.0014809931312963
0.0008775644908686
0.0005153421785718
0.0003017029998252
0.0001771203570243
0.0001048411766329
0.0000628734527600
0.0000383556392509
0.0000238777887084
0.0000152040078839
0.0000099165480506
0.0000066301764384
0.0000045447535319
0.0000031927354095
0.1128001099066833
0.0922025861688201
0.0735894092508522
0.0572424405454890
0.0433239335289501
0.0318609411373241
0.0227469112018865
0.0157613242601131
0.0106038548536866
0.0069358503729512
0.0044204164152272
0.0027536999433661
0.0016834127554702
0.0010146559612658
0.0006060995442498
0.0003607488368776
0.0002150887937249
0.0001291113189935
0.0000783790692055
0.0000483046750434
0.0000303157430563
0.0000194195242553
0.0000127168917955
0.0000085209220034
0.0000058438355347
0.0000041016053992
0.1151594116951444
0.0941816162705635
0.0752718154184534
0.0586916626283243
0.0445824130888848
0.0329529267985734
0.0236840051549426
0.0165491515814872
0.0112480083764978
0.0074456973150904
0.0048102569917937
0.0030417186130349
0.0018894484210538
0.0011578708435825
0.0007032740320124
0.0004254508967053
0.0002575995593441
0.0001568250992918
0.0000964000912852
0.0000600482762564
0.0000380165316830
0.0000245180940636
0.0000161343053805
0.0000108444307840
0.0000074484973800
0.0000052282292024
0.1304731871233564
0.1070888110823109
0.0858401637258402
0.0670748212536545
0.0510073104223644
0.0376985798680219
0.0270548953547059
0.0188476712662821
0.0127507333490030
0.0083871063345624
0.0053753919972721
0.0033669772829077
0.0020690623404434
0.0012530848408206
0.0007516935672708
0.0004489899258505
0.0002684339573712
0.0001614332667885
0.0000980940570892
0.0000604575169536
0.0000379111465577
0.0000242448809458
0.0000158389075989
0.0000105806836840
0.0000072305364913
0.1477673741495154
0.1217580802841182
0.0979209435405217
0.0767056554037216
0.0584177431519816
0.0431868867377715
0.0309578079378654
0.0215073804629791
0.0144852160090851
0.0094687615940582
0.0060204362343588
0.0037350513697031
0.0022702211980862
0.0013584604860559
0.0008045874453635
0.0004743530970392
0.0002799452779984
0.0001662619081994
0.0000998458392603
0.0000608761124485
0.0000378058742583
0.0000239732807313
0.0000155479237091
0.0000103230756268
0.0000070192487801
0.1672161783591144
0.1383658435850932
0.1116827851523231
0.0877361252612071
0.0669424902488247
0.0495201369561375
0.0354686052217086
0.0245805982949449
0.0164848696540855
0.0107103390255818
0.0067560230206978
0.0041511839026676
0.0024952633264842
0.0014749266873061
0.0008622740290944
0.0005016271449382
0.0002921468872425
0.0001713077893383
0.0001016518385441
0.0000613027524958
0.0000377009679684
0.0000237041480917
0.0000152622472438
0.0000100723162948
0.0000068151207439
0.1889768547337579
0.1570787119004188
0.1272906453297886
0.1003191030308801
0.0767140243516754
0.0568053883435106
0.0406676859662678
0.0281232009614588
0.0187854723679401
0.0121328446865867
0.0075933994644626
0.0046208275947910
0.0027465558317010
0.0016033845151661
0.0009250401143522
0.0005308780148826
0.0003050415372045
0.0001765632570594
0.0001035070102926
0.0000617358399863
0.0000375967341089
0.0000234384334618
0.0000149828330795
0.0000098291399624
0.0000066186408723
0.2131763383756281
0.1780414741053316
0.1448955975982344
0.1146001996737025
0.0878623642113570
0.0651501216738950
0.0466370868031817
0.0321927810251931
0.0214240413503376
0.0137579457827017
0.0085440399423547
0.0051494300003502
0.0030263817268263
0.0017446522097198
0.0009931164963835
0.0005621411223192
0.0003186179535670
0.0001820152273426
0.0001054046323269
0.0000621734613739
0.0000374935356069
0.0000231771834779
0.0000147106937148
0.0000095943009612
0.0000064302961739
0.2398948482318962
0.2013618011464270
0.1646213143465493
0.1307064940840102
0.1005062365065748
0.0746557312012295
0.0534559742673764
0.0368457011384203
0.0244370060657123
0.0156068914433687
0.0096190386476165
0.0057421096798578
0.0033367782005665
0.0018993905160324
0.0010666465523576
0.0005954094908077
0.0003328469047267
0.0001876440878640
0.0001073360709052
0.0000626133600124
0.0000373917941892
0.0000229215392193
0.0000144468939188
0.0000093685683763
0.0000062505685227
0.2691467083385415
0.2270916966520768
0.1865470671753783
0.1487318348043687
0.1147411313040624
0.0854084258434940
0.0611941550775315
0.0421327576067143
0.0278574891217072
0.0176989105471166
0.0108282231367852
0.0064031975625357
0.0036793163867823
0.0020680055133499
0.0011456473122220
0.0006306198040317
0.0003476768363681
0.0001934225577840
0.0001092905584175
0.0000630529147535
0.0000372919913640
0.0000226727318309
0.0000141925436177
0.0000091527200059
0.0000060799308954
0.3008590868377343
0.2552061604673218
0.2106874580438259
0.1687186948997967
0.1306240602996710
0.0974672609482882
0.0699033153574099
0.0480932118970553
0.0317115246981684
0.0200489848514977
0.0121789374700701
0.0071356220699112
0.0040548157211013
0.0022505275919948
0.0012299631867176
0.0006676366827983
0.0003630292459802
0.0001993145715306
0.0001112550011264
0.0000634891266435
0.0000371946677253
0.0000224320751236
0.0000139487889339
0.0000089475356451
0.0000059188435771
0.3348499338912217
0.2855801310292289
0.2369696673756406
0.1906370662327156
0.1481552352484741
0.1108493215340672
0.0796059023453751
0.0547470743827780
0.0360131181679336
0.0226649372625881
0.0136744664117550
0.0079401287485014
0.0044629920837514
0.0024464680266376
0.0013192136535274
0.0007062358950197
0.0003787940892250
0.0002052742813395
0.0001132138401056
0.0000639186169741
0.0000371004202105
0.0000222009547963
0.0000137168013425
0.0000087537897813
0.0000057677504209
0.3708070638040418
0.3179655077954521
0.2652097600125204
0.2143615944882513
0.1672575066764253
0.1255125745329781
0.0902819246318385
0.0620857674076196
0.0407582007027052
0.0255438614671039
0.0153121185876644
0.0088143483866310
0.0049020496105727
0.0026546590321961
0.0014127378345429
0.0007460877264150
0.0003948256490898
0.0002112453028258