# vtk DataFile Version 3.0
Cubed Sphere AHF mesh. Centered at (0,0,0) with radius 1.0. Scaling is (26,31,43).
ASCII
DATASET UNSTRUCTURED_GRID
POINTS 12028 double
-0.5773502691896258 -0.5773502691896258 -0.5773502691896258
-0.5547197882851460 -0.5883391693933367 -0.5883391693933367
-0.5307876801687645 -0.5992764130937664 -0.5992764130937664
-0.5055150115692987 -0.6101043243077743 -0.6101043243077743
-0.4788709590352717 -0.6207586506012781 -0.6207586506012781
-0.4508348173337161 -0.6311687442672026 -0.6311687442672026
-0.4213981109458064 -0.6412579949175314 -0.6412579949175314
-0.3905667329424716 -0.6509445549041193 -0.6509445549041193
-0.3583630120162500 -0.6601423905562500 -0.6601423905562500
-0.3248275864741905 -0.6687626780350979 -0.6687626780350979
-0.2900209467136991 -0.6767155423319645 -0.6767155423319645
-0.2540244987629046 -0.6839121120539740 -0.6839121120539740
-0.2169410045506953 -0.6902668326613033 -0.6902668326613033
-0.1788942727031962 -0.6956999494013186 -0.6956999494013186
-0.1400280084028010 -0.7001400420140049 -0.7001400420140049
-0.1005037815259213 -0.7035264706814485 -0.7035264706814485
-0.0604981355098045 -0.7058115809477191 -0.7058115809477191
-0.0201989290811694 -0.7069625178409298 -0.7069625178409298
0.0201989290811693 -0.7069625178409298 -0.7069625178409298
0.0604981355098044 -0.7058115809477191 -0.7058115809477191
0.1005037815259212 -0.7035264706814485 -0.7035264706814485
0.1400280084028009 -0.7001400420140049 -0.7001400420140049
0.1788942727031962 -0.6956999494013186 -0.6956999494013186
0.2169410045506953 -0.6902668326613033 -0.6902668326613033
0.2540244987629046 -0.6839121120539740 -0.6839121120539740
0.2900209467136991 -0.6767155423319645 -0.6767155423319645
0.3248275864741905 -0.6687626780350979 -0.6687626780350979
0.3583630120162500 -0.6601423905562501 -0.6601423905562501
0.3905667329424715 -0.6509445549041193 -0.6509445549041193
0.4213981109458064 -0.6412579949175315 -0.6412579949175315
0.4508348173337161 -0.6311687442672026 -0.6311687442672026
0.4788709590352716 -0.6207586506012781 -0.6207586506012781
0.5055150115692987 -0.6101043243077743 -0.6101043243077743
0.5307876801687645 -0.5992764130937664 -0.5992764130937664
0.5547197882851460 -0.5883391693933367 -0.5883391693933367
0.5773502691896258 -0.5773502691896258 -0.5773502691896258
-0.5865098121518428 -0.5585807734779455 -0.5865098121518428
-0.5638669079075821 -0.5695625332399818 -0.5980406599019810
-0.5398770950425356 -0.5805130054220813 -0.6095386556931853
-0.5144957554275266 -0.5913744315258926 -0.6209431531021873
-0.4876864092685518 -0.6020819867512984 -0.6321860860888634
-0.4594229188737666 -0.6125638918316888 -0.6431920864232733
-0.4296918352675400 -0.6227417902428116 -0.6538788797549522
-0.3984948074276141 -0.6325314403612922 -0.6641580123793568
-0.3658509455967031 -0.6418437642047422 -0.6739359524149794
-0.3317990026756940 -0.6505862797562625 -0.6831155937440757
-0.2963992148724529 -0.6586649219387842 -0.6915981680357235
-0.2597346290550845 -0.6659862283463704 -0.6992855397636890
-0.2219117443591611 -0.6724598313913971 -0.7060828229609670
-0.1830603136191979 -0.6780011615525849 -0.7119012196302142
-0.1433321885582685 -0.6825342312298496 -0.7166609427913421
-0.1028991510855053 -0.6859943405700353 -0.7202940575985370
-0.0619497477789987 -0.6883305308777630 -0.7227470574216511
-0.0206852283677332 -0.6895076122577726 -0.7239829928706611
0.0206852283677331 -0.6895076122577726 -0.7239829928706611
0.0619497477789986 -0.6883305308777630 -0.7227470574216511
0.1028991510855052 -0.6859943405700353 -0.7202940575985370
0.1433321885582684 -0.6825342312298496 -0.7166609427913421
0.1830603136191979 -0.6780011615525849 -0.7119012196302142
0.2219117443591611 -0.6724598313913971 -0.7060828229609670
0.2597346290550845 -0.6659862283463704 -0.6992855397636890
0.2963992148724529 -0.6586649219387842 -0.6915981680357235
0.3317990026756940 -0.6505862797562625 -0.6831155937440757
0.3658509455967030 -0.6418437642047423 -0.6739359524149795
0.3984948074276140 -0.6325314403612922 -0.6641580123793568
0.4296918352675400 -0.6227417902428116 -0.6538788797549523
0.4594229188737666 -0.6125638918316888 -0.6431920864232733
0.4876864092685517 -0.6020819867512984 -0.6321860860888634
0.5144957554275266 -0.5913744315258926 -0.6209431531021873
0.5398770950425356 -0.5805130054220813 -0.6095386556931853
0.5638669079075821 -0.5695625332399818 -0.5980406599019810
0.5865098121518428 -0.5585807734779455 -0.5865098121518428
-0.5956398291872697 -0.5389122264075297 -0.5956398291872697
-0.5730014914369524 -0.5498499160253585 -0.6077288545543436
-0.5489712066155029 -0.5607770390158364 -0.6198062010175034
-0.5234983022902888 -0.5716360772135337 -0.6318082958675899
-0.4965402075067919 -0.5823619717672250 -0.6436632319532487
-0.4680648595607225 -0.5928821554435818 -0.6552908033850114
-0.4380533000034907 -0.6031168623236467 -0.6666028478313990
-0.4065023759948960 -0.6129797733256368 -0.6775039599914933
-0.3734274293359706 -0.6223790488932842 -0.6878926329873142
-0.3388648216573234 -0.6312187854401121 -0.6976628681180187
-0.3028741146612290 -0.6394009087292614 -0.7067062675428678
-0.2655397044930909 -0.6468274853036831 -0.7149145890198602
-0.2269717052282470 -0.6534033938388930 -0.7221826984535132
-0.1873058935596094 -0.6590392551171441 -0.7284118082873698
-0.1467025686497378 -0.6636544772250041 -0.7335128432486888
-0.1053442480830936 -0.6671802378595924 -0.7374097365816547
-0.0634322088881899 -0.6695622049308929 -0.7400424370288816
-0.0211819830187452 -0.6707627955935989 -0.7413694056560830
0.0211819830187452 -0.6707627955935989 -0.7413694056560830
0.0634322088881898 -0.6695622049308929 -0.7400424370288816
0.1053442480830935 -0.6671802378595924 -0.7374097365816547
0.1467025686497377 -0.6636544772250041 -0.7335128432486888
0.1873058935596094 -0.6590392551171441 -0.7284118082873698
0.2269717052282470 -0.6534033938388930 -0.7221826984535132
0.2655397044930909 -0.6468274853036831 -0.7149145890198602
0.3028741146612290 -0.6394009087292614 -0.7067062675428678
0.3388648216573234 -0.6312187854401121 -0.6976628681180187
0.3734274293359704 -0.6223790488932842 -0.6878926329873142
0.4065023759948960 -0.6129797733256369 -0.6775039599914934
0.4380533000034907 -0.6031168623236467 -0.6666028478313990
0.4680648595607224 -0.5928821554435818 -0.6552908033850114
0.4965402075067918 -0.5823619717672250 -0.6436632319532487
0.5234983022902888 -0.5716360772135337 -0.6318082958675899
0.5489712066155029 -0.5607770390158364 -0.6198062010175034
0.5730014914369524 -0.5498499160253585 -0.6077288545543436
0.5956398291872697 -0.5389122264075297 -0.5956398291872697
-0.6047078979069521 -0.5183210553488161 -0.6047078979069521
-0.5820911597273504 -0.5291737815703186 -0.6173694118320383
-0.5580379478707267 -0.5400367237458645 -0.6300428443701753
-0.5324911872171448 -0.5508529522935982 -0.6426617776758645
-0.5054017946856527 -0.5615575496507252 -0.6551504745925127
-0.4767312946227961 -0.5720775535473553 -0.6674238124719146
-0.4464546768123571 -0.5823321871465528 -0.6793875516709782
-0.4145634107251641 -0.5922334438930915 -0.6909390178752733
-0.3810684897571042 -0.6016870890901646 -0.7019682706051920
-0.3460033379306549 -0.6105941257599792 -0.7123598133866423
-0.3094263738776381 -0.6188527477552761 -0.7219948723811553
-0.2714229994642801 -0.6263607679944924 -0.7307542293269077
-0.2321067706532514 -0.6330184654179583 -0.7385215429876180
-0.1916195232862310 -0.6387317442874367 -0.7451870350020094
-0.1501302715512850 -0.6434154495055069 -0.7506513577564247
-0.1078327732034384 -0.6469966392206304 -0.7548294124240689
-0.0649417589266229 -0.6494175892662285 -0.7576538541439333
-0.0216879433365917 -0.6506383000977519 -0.7590780167807105
0.0216879433365917 -0.6506383000977519 -0.7590780167807105
0.0649417589266228 -0.6494175892662285 -0.7576538541439333
0.1078327732034384 -0.6469966392206304 -0.7548294124240689
0.1501302715512849 -0.6434154495055069 -0.7506513577564247
0.1916195232862310 -0.6387317442874367 -0.7451870350020094
0.2321067706532514 -0.6330184654179583 -0.7385215429876180
0.2714229994642801 -0.6263607679944924 -0.7307542293269077
0.3094263738776381 -0.6188527477552761 -0.7219948723811553
0.3460033379306549 -0.6105941257599792 -0.7123598133866423
0.3810684897571041 -0.6016870890901647 -0.7019682706051920
0.4145634107251639 -0.5922334438930915 -0.6909390178752733
0.4464546768123570 -0.5823321871465528 -0.6793875516709782
0.4767312946227961 -0.5720775535473553 -0.6674238124719146
0.5054017946856526 -0.5615575496507252 -0.6551504745925127
0.5324911872171448 -0.5508529522935982 -0.6426617776758645
0.5580379478707267 -0.5400367237458645 -0.6300428443701753
0.5820911597273504 -0.5291737815703186 -0.6173694118320383
0.6047078979069521 -0.5183210553488161 -0.6047078979069521
-0.6136784137961436 -0.4967872873587830 -0.6136784137961436
-0.5911000832368005 -0.5075101724760409 -0.6269243307056975
-0.5670415474938848 -0.5182637799675291 -0.6402081987834184
-0.5414390111512009 -0.5289921373316331 -0.6534608755273115
-0.5142364826127935 -0.5396308768158944 -0.6666028478313990
-0.4853886012679302 -0.5501070814369875 -0.6795440417751022
-0.4548637678747257 -0.5603394241935027 -0.6921839945919739
-0.4226474908013944 -0.5702386780653733 -0.7044124846689905
-0.3887458142036259 -0.5797086703036526 -0.7161107103751003
-0.3531886444927532 -0.5886477408212553 -0.7271530916027271
-0.3160327442492806 -0.5969507391375299 -0.7374097365816547
-0.2773641258848266 -0.6045115564156477 -0.7467495696899177
-0.2372995601235082 -0.6112261397120665 -0.7550440549384352
-0.1959869260380093 -0.6169958782678070 -0.7621713790367027
-0.1536041770872830 -0.6217311929723358 -0.7680208854364148
-0.1103567839166565 -0.6253551088610533 -0.7724974874165952
-0.0664736354038784 -0.6278065565921850 -0.7755257463785815
-0.0222015226326350 -0.6290431412579920 -0.7770532921422254
0.0222015226326349 -0.6290431412579920 -0.7770532921422254
0.0664736354038784 -0.6278065565921850 -0.7755257463785815
0.1103567839166564 -0.6253551088610533 -0.7724974874165952
[...]
POINT_DATA 12028
SCALARS scalars double 1
LOOKUP_TABLE default
0.1151594116951443
0.0999783405855100
0.0858064211201531
0.0727559033968844
0.0609108586166917
0.0503230426247944
0.0410095961728541
0.0329529267985733
0.0261028934868598
0.0203811459036916
0.0156871996868965
0.0119056098753737
0.0089134819257905
0.0065875603487868
0.0048102569917937
0.0034741940208636
0.0024850906542208
0.0017630629717104
0.0012425887524791
0.0008714913798752
0.0006093185704333
0.0004254508967053
0.0002971980224437
0.0002080527828867
0.0001461935756094
0.0001032641431945
0.0000734192892441
0.0000526029396506
0.0000380165316830
0.0000277360216118
0.0000204407459775
0.0000152240806423
0.0000114625876912
0.0000087262595619
0.0000067172596059
0.0000052282292024
0.1135716055000582
0.0985792031046400
0.0845638897012815
0.0716430744997050
0.0599064901963030
0.0494115567883591
0.0401805876272236
0.0322002512037122
0.0254234711476137
0.0197736564755843
0.0151508523943505
0.0114391479009261
0.0085145247898350
0.0062523177136509
0.0045335786675464
0.0032498696883081
0.0023062882613410
0.0016227976849332
0.0011341380791030
0.0007887059711422
0.0005468117543616
0.0003786758530005
0.0002624366888985
0.0001823457522845
0.0001272382149638
0.0000893022852430
0.0000631288922074
0.0000450018603285
0.0000323818150936
0.0000235389938863
0.0000172964493817
0.0000128528263763
0.0000096612581637
0.0000073471834392
0.0000056528184668
0.0000043997198331
0.1114940180062386
0.0967504130442285
0.0829501491248373
0.0702146458390834
0.0586383371430514
0.0482835746121114
0.0391773572616230
0.0313103698974501
0.0246385771157506
0.0190873109939766
0.0145574581310834
0.0109330619731555
0.0080894735748451
0.0059011511349021
0.0042483325935730
0.0030220531081737
0.0021272873030117
0.0014842923538963
0.0010284526811093
0.0007090491123785
0.0004873954553507
0.0003347281898799
0.0002301357785933
0.0001587060395941
0.0001099762122110
0.0000767018001947
0.0000539182045320
0.0000382489406153
0.0000274091511738
0.0000198568397133
0.0000145519576607
0.0000107921099299
0.0000081015518197
0.0000061566627900
0.0000047360948283
0.0000036874742797
0.1089169390877349
0.0944819292974517
0.0809555918483142
0.0684620498019012
0.0570992949259332
0.0469336865850946
0.0379962410777521
0.0302812591974711
0.0237476048269472
0.0183226228516813
0.0139083234509264
0.0103891345343575
0.0076403088582333
0.0055360198631359
0.0039563029886446
0.0027922632540411
0.0019493054693583
0.0013484682821986
0.0009261890984568
0.0006329580565767
0.0004313368455428
0.0002937510672513
0.0002003535557761
0.0001371377797811
0.0000943802210602
0.0000654195237202
0.0000457383990961
0.0000322957970915
0.0000230539100499
0.0000166501742136
0.0000121735153890
0.0000090135696542
0.0000067599598102
0.0000051353872373
0.0000039513181732
0.0000030786550049
0.1058415559221867
0.0917732377301634
0.0785788218465972
0.0663836998002528
0.0552881158813364
0.0453613342226070
0.0366375418135817
0.0291140956615682
0.0227524909229431
0.0174820906605289
0.0132062707022455
0.0098102735912637
0.0071698177878241
0.0051594350235889
0.0036596289312716
0.0025622277008285
0.0017736660258086
0.0012162845491448
0.0008280010208799
0.0005608462174640
0.0003788713826308
0.0002558559642928
0.0001731207323164
0.0001176232326687
0.0000804067283713
0.0000554010945081
0.0000385334030138
0.0000270897355786
0.0000192692092305
0.0000138787259634
0.0000101273345974
0.0000074893058162
0.0000056136888657
0.0000042648618862
0.0000032835404340
0.0000025612017383
0.1022817504324707
0.0886350385715978
0.0758281943990542
0.0639863543317016
0.0532105803270950
0.0435717823153297
0.0351063070160547
0.0278138536581074
0.0216581527245653
0.0165705002270862
0.0124558308194115
0.0092006221738586
0.0066816438875177
0.0047744700957683
0.0033607918402336
0.0023338592761540
0.0016017719067471
0.0010887144862200
0.0007345205039713
0.0004930896904556
0.0003301941306413
0.0002211177978680
0.0001484382793548
0.0001001223088393
0.0000679965374772
0.0000465818711283
0.0000322409224626
0.0000225747060332
0.0000160067193384
0.0000115019736065
0.0000083800736271
0.0000061922264906
0.0000046409021437
0.0000035275689478
0.0000027187399969
0.0000021238948441
0.0982656120037615
0.0850906975298321
0.0727231625686580
0.0612863239456919
0.0508805395891236
0.0415769852540248
0.0334130175523241
0.0263898254067305
0.0204728574595093
0.0155951662254989
0.0116633834234942
0.0085656229088475
0.0061803000394264
0.0043847426131803
0.0030625817591204
0.0021092181992473
0.0014350707647892
0.0009667172331467
0.0006463371004343
0.0004300134286633
0.0002854516424030
0.0001895709449308
0.0001262761519677
0.0000845728564020
0.0000570758106846
0.0000388882184302
0.0000267936857807
0.0000186923679394
0.0000132175106240
0.0000094797824859
0.0000068992951643
0.0000050963643546
0.0000038209299251
0.0000029071018341
0.0000022439023048
0.0000017563996944
0.0938365052768055
0.0811773089113245
0.0692952903109538
0.0583103951541768
0.0483207206457755
0.0393962534620498
0.0315741087408411
0.0248560009483470
0.0192084746007549
0.0145660771153127
0.0108372181047819
0.0079120200032441
0.0056711335219465
0.0039943608477212
0.0027680395985323
0.0018904590054177
0.0012750114525193
0.0008512053441268
0.0005639759395432
0.0003718779432979
0.0002447350291634
0.0001612065587426
0.0001065731309661
0.0000708917869120
0.0000475576757630
0.0000322391330321
0.0000221208632361
0.0000153832264184
0.0000108529078197
0.0000077730173962
0.0000056538871985
0.0000041771541181
0.0000031344441916
0.0000023882686414
0.0000018470757897
0.0000014492918433
0.0890535360126949
0.0769462186780025
0.0655887890674852
0.0550963404616107
0.0455631764487772
0.0370566204512980
0.0296122416210642
0.0232312421617313
0.0178805608376259
0.0134959064586501
0.0099874915465638
0.0072477825299667
0.0051602339917088
0.0036078313098031
0.0024803743501580
0.0016797630538868
0.0011229935009012
0.0007430101173803
0.0004878761803668
0.0003188675717262
0.0002080748831862
0.0001359715416314
0.0000892379352035
0.0000589770686703
0.0000393443622177
0.0000265481515007
0.0000181496069751
0.0000125877922406
0.0000088653187198
0.0000063441079844
0.0000046144322003
0.0000034116621548
0.0000025635928110
0.0000019571633251
0.0000015174029202
0.0000011940635591
0.0839912800527230
0.0724628731884661
0.0616604486692239
0.0516928944344082
0.0426492742649154
0.0345928176426815
0.0275562475623050
0.0215391902211215
0.0165082323858746
0.0123998589681669
0.0091260602239646
0.0065819376777840
0.0046542795392833
0.0032299264302436
0.0022028570254469
0.0014792593695828
0.0009803124205378
0.0006428470385872
0.0004183715985026
0.0002710814534587
0.0001754386926049
0.0001137694631821
0.0000741516800392
0.0000487105533952
0.0000323297910980
0.0000217254604131
0.0000148066429352
0.0000102477150803
0.0000072090022486
0.0000051575455397
0.0000037535124884
0.0000027787623625
0.0000020920910530
0.0000016012043693
0.0000012451272157
0.0000009831129957
0.0787386830389310
0.0678058977684391
0.0575788673212567
0.0481591052999131
0.0396291398932735
0.0320467860152704
0.0254406882717232
0.0198078621648302
0.0151137934022701
0.0112953316909264
0.0082661786154516
0.0059243110140904
0.0041603225686064
0.0028655167463291
0.0019386965419041
0.0012909388007255
0.0008481049308763
0.0005512843422829
0.0003556752654051
0.0002285283336185
0.0001467312782117
0.0000944635901869
0.0000611716571418
0.0000399615335186
0.0000264025018140
0.0000176801078964
0.0000120198398036
0.0000083068395539
0.0000058407449645
0.0000041802938521
0.0000030459433847
0.0000022592551989
0.0000017052703218
0.0000013091422653
0.0000010215780840
0.0000008097179262
0.0733971002990211
0.0630653674451641
0.0534229392298510
0.0445630203705397
0.0365605191305134
0.0294666918284118
0.0233050062497958
0.0180689203089420
0.0137221127332502
0.0102013899377644
0.0074220681565215
0.0052851825570573
0.0036855258671686
0.0025193778693241
0.0016909065871680
0.0011165686610575
0.0007272992855601
0.0004687180576464
0.0002998702652994
0.0001911261429615
0.0001217985838614
0.0000778820299900
0.0000501362972152
0.0000325908604070
0.0000214487665994
0.0000143222046871
0.0000097196799046
0.0000067121382687
0.0000047204208783
0.0000033821022627
0.0000024689300753
0.0000018359299875
0.0000013900861475
0.0000010710385158
0.0000008391362143
0.0000006679964799
0.0680775215719669
0.0583403051948904
0.0492796277671877
0.0409797280041034
0.0335070763760906
0.0269054656133960
0.0211922857695162
0.0163566362784345
0.0123597724626379
0.0091380823965080
0.0066083811548903
0.0046748813107947
0.0032368687676774
0.0021959885871802
0.0014621759745051
0.0009576167136134
0.0006185764292497
0.0003953568680490
0.0002509081061350
0.0001587069718370
0.0001004348766302
0.0000638247987351
0.0000408710650769
0.0000264553986234
0.0000173557235054
0.0000115650018036
0.0000078405639720
0.0000054144851881
0.0000038114177226
0.0000027357154952
0.0000020021487318
0.0000014935736995
0.0000011350894569
0.0000008782200829
0.0000006911829411
0.0000005528576869
0.0628971045343526
0.0537355216174339
0.0452411281295760
0.0374888506430670
0.0305362163363888
0.0244189426990416
0.0191476956727756
0.0147066143704186
0.0110540463980101
0.0081256466815569
0.0058396035880396
0.0041033545111985
0.0028208519494494
0.0018993413616525
0.0012547573036433
0.0008151940247753
0.0005223475225696
0.0003312195674190
0.0002086158977417
0.0001310275822074
0.0000823930896950
0.0000520724364498
0.0000331949434701
0.0000214125578401
0.0000140143566039
0.0000093267428804
0.0000063218958911
0.0000043692453371
0.0000030809226264
0.0000022169817599
0.0000016277569761
0.0000012189322283
0.0000009303667977
0.0000007232141042
0.0000005720374559
0.0000004599448354
0.0579752121100498
0.0493579815506763
0.0414015937816171
0.0341716506535726
0.0277165770042305
0.0220637392416423
0.0172167333136008
0.0131543786673798
0.0098317978865033
0.0071836797836660
0.0051294567440225
0.0035797578978785
0.0024432348927558
0.0016327887132787
0.0010703889704334
0.0006900254189692
0.0004387522291796
0.0002761468146662
0.0001727125323001
0.0001077850424937
0.0000673977171227
0.0000423956333609
0.0000269271054542
0.0000173246398291
0.0000113221695021
0.0000075322115911
0.0000051089133768
0.0000035366719580
0.0000025000705339
0.0000018048672813
0.0000013303427918
0.0000010006324539
0.0000007674563901
0.0000005996682740
0.0000004768859596
0.0000003855746759
0.0534291986532990
0.0453129343921145
0.0378536518294159
0.0311079594595693
0.0251153871385691
0.0198950375903550
0.0154434225393916
0.0117339549491753
0.0087184059708729
0.0063303609582727
0.0044903651201433
0.0031121163910146
0.0021088400171764
0.0013989472278769
0.0009102630724827
0.0005824537633731
0.0003676800689820
0.0002298273614485
0.0001428331163923
0.0000886365107625
0.0000551594014745
0.0000345652365762
0.0000218933680244
0.0000140627662763
0.0000091854342065
0.0000061139259998
0.0000041532539296
0.0000028821179613
0.0000020439685436
0.0000014813911595
0.0000010968241366
0.0000008290749802
0.0000006392475783
0.0000005022625027
0.0000004017068293
0.0000003266753897
0.0493702093749425
0.0417000649033962
0.0346849522241950
0.0283731588977900
0.0227958975095084
0.0179644675559380
0.0138686274038106
0.0104765830780055
0.0077368295401667
0.0055818118605179
0.0039330528096609
0.0027070979836396
0.0018214506211343
0.0011996745043034
0.0007750463959638
0.0004924802386949
0.0003088143276686
0.0001918371721202
0.0001185599299873
0.0000732217322385
0.0000453901940946
0.0000283619940998
0.0000179320659971
0.0000115102112068
0.0000075209472540
0.0000050129680679
0.0000034132693587
0.0000023760830972
0.0000016916176130
0.0000012314988230
0.0000009163135754
0.0000006963082429
0.0000005398714286
0.0000004266173557
0.0000003431956547
0.0000002807259980
0.0458992417200273
0.0386099050560073
0.0319749786593699
0.0260354256129447
0.0208150758355062
0.0163182495732179
0.0125286216984150
0.0094096733517668
0.0069068970610071
0.0049516576081822
0.0034663112752123
0.0023699268548070
0.0015838159403556
0.0010361237223813
0.0006649540141126
0.0004198376573639
0.0002616949133144
0.0001616881670577
0.0000994574018358
0.0000611865440270
0.0000378184461980
0.0000235854682117
0.0000148990783658
0.0000095650406815
0.0000062572814814
0.0000041794728577
0.0000028541236600
0.0000019941300492
0.0000014257589854
0.0000010428949450
0.0000007799631374
0.0000005958947401
0.0000004645899357
0.0000003692043834
0.0000002986936177
0.0000002456995631
0.0431036704192304
0.0361206983200285
0.0297922981164420
0.0241533972501704
0.0192217029203590
0.0149957139715356
0.0114540044264331
0.0085560734312231
0.0062448668909752
0.0044508152256376
0.0030969502542713
0.0021044369027554
0.0013977579697386
0.0009088673200109
0.0005798663664680
0.0003640886717873
0.0002257937284014
0.0001388820118078
0.0000851081354635
0.0000522056396326
0.0000322024066815
0.0000200616965960
0.0000126718618028
0.0000081420485645
0.0000053355759583
0.0000035728330956
0.0000024477254325
0.0000017167104316
0.0000012326758109
0.0000009058574841
0.0000006808043610
0.0000005227795337
0.0000004096906343
0.0000003272628599
0.0000002661222061
0.0000002200121551
0.0410543708444664
0.0342958373969013
0.0281923532142176
0.0227743452215465
0.0180549338597990
0.0140282390377012
0.0106689838142513
0.0079336507700999
0.0057632489448553
0.0040874902623542
0.0028299069461599
0.0019132391572678
0.0012643549578141
0.0008180682163234
0.0005194727714851
0.0003247364100786
0.0002005941216126
0.0001229636767962
0.0000751469594102
0.0000460030270274
0.0000283418253635
0.0000176493636138
0.0000111524730774
0.0000071740551083
0.0000047099499063
0.0000031616964793
0.0000021725555283
0.0000015289448668
0.0000011019806918
0.0000008130536195
0.0000006135973022
0.0000004731700445
0.0000003723924851
0.0000002987267345
0.0000002439267196
0.0000002024791738
0.0398035043540713
0.0331819222382405
0.0272158252532079
0.0219328619081691
0.0173433123806832
0.0134385778399399
0.0101909848800634
0.0075551349447287
0.0054708265127800
0.0038673198783526
0.0026684557608081
0.0017979526924002
0.0011841604442131
0.0007636671588947
0.0004834189298143
0.0003013325879811
0.0001856651684648
0.0001135694937319
0.0000692902758581
0.0000423689496322
0.0000260871272275
0.0000162444227797
0.0000102696678232
0.0000066126909235
0.0000043476522915
0.0000029238427992
0.0000020134525062
0.0000014203999691
0.0000010264175681
0.0000007593760573
0.0000005747003685
0.0000004444347030
0.0000003507678319
0.0000002821648306
0.0000002310304900
0.0000001922802420
0.0393829712898299
0.0328074256400276
0.0268875357838045
0.0216500108277495
0.0171041691975710
0.0132404902697383
0.0100304872053420
0.0074281223034659
0.0053727823202533
0.0037935735824786
0.0026144411394137
0.0017594354034269
0.0011574087384852
0.0007455506812158
0.0004714344157433
0.0002935680048596
0.0001807220152487
0.0001104650676777
0.0000673585300171
0.0000411724303028
0.0000253459656837
0.0000157832443465
0.0000099802263809
0.0000064288132011
0.0000042290638022
0.0000028460248980
0.0000019614130095
0.0000013848996913
0.0000010017019474
0.0000007418148715
0.0000005619704728
0.0000004350263664
0.0000003436841042
0.0000002767365755
0.0000002268012327
0.0000001889335500
0.0398035043540713
0.0331819222382405
0.0272158252532079
0.0219328619081691
0.0173433123806832
0.0134385778399399
0.0101909848800634
0.0075551349447287
0.0054708265127800
0.0038673198783526
0.0026684557608081
0.0017979526924002
0.0011841604442131
0.0007636671588947
0.0004834189298143
0.0003013325879811
0.0001856651684648
0.0001135694937319
0.0000692902758581
0.0000423689496322
0.0000260871272275
0.0000162444227797
0.0000102696678232
0.0000066126909235
0.0000043476522915
0.0000029238427992
0.0000020134525062
0.0000014203999691
0.0000010264175681
0.0000007593760573
0.0000005747003685
0.0000004444347030
0.0000003507678319
0.0000002821648306
0.0000002310304900
0.0000001922802420
0.0410543708444664
0.0342958373969013
0.0281923532142176
0.0227743452215465
0.0180549338597990
0.0140282390377012
0.0106689838142512
0.0079336507700999
0.0057632489448553
0.0040874902623542
0.0028299069461599
0.0019132391572678
0.0012643549578141
0.0008180682163234
0.0005194727714851
0.0003247364100786
0.0002005941216126
0.0001229636767962
0.0000751469594102
0.0000460030270274
0.0000283418253635
0.0000176493636138
0.0000111524730774
0.0000071740551083
0.0000047099499063
0.0000031616964793
0.0000021725555283
0.0000015289448668
0.0000011019806918
0.0000008130536195
0.0000006135973022
0.0000004731700445
0.0000003723924851
0.0000002987267345
0.0000002439267196
0.0000002024791738
0.0431036704192304
0.0361206983200285
0.0297922981164420
0.0241533972501704
0.0192217029203590
0.0149957139715356
0.0114540044264331
0.0085560734312231
0.0062448668909752
0.0044508152256376
0.0030969502542713
0.0021044369027554
0.0013977579697386
0.0009088673200109
0.0005798663664680
0.0003640886717873
0.0002257937284014
0.0001388820118078
0.0000851081354635
0.0000522056396326
0.0000322024066815
0.0000200616965960
0.0000126718618028
0.0000081420485645
0.0000053355759583
0.0000035728330956
0.0000024477254325
0.0000017167104316
0.0000012326758109
0.0000009058574841
0.0000006808043610
0.0000005227795337
0.0000004096906343
0.0000003272628599
0.0000002661222061
0.0000002200121551
0.0458992417200273
0.0386099050560072
0.0319749786593699
0.0260354256129447
0.0208150758355062
0.0163182495732179
0.0125286216984150
0.0094096733517668
0.0069068970610071
0.0049516576081823
0.0034663112752123
0.0023699268548070
0.0015838159403556
0.0010361237223813
0.0006649540141126
0.0004198376573639
0.0002616949133144
0.0001616881670577
0.0000994574018358
0.0000611865440270
0.0000378184461980
0.0000235854682117
0.0000148990783658
0.0000095650406815
0.0000062572814814
0.0000041794728577
0.0000028541236600
0.0000019941300492
0.0000014257589854
0.0000010428949450
0.0000007799631374
0.0000005958947401
0.0000004645899357
0.0000003692043834
0.0000002986936177
0.0000002456995631
0.0493702093749425
0.0417000649033962
0.0346849522241950
0.0283731588977900
0.0227958975095084
0.0179644675559380
0.0138686274038106
0.0104765830780055
0.0077368295401667
0.0055818118605179
0.0039330528096609
0.0027070979836396
0.0018214506211343
0.0011996745043034
0.0007750463959638
0.0004924802386949
0.0003088143276686
0.0001918371721202
0.0001185599299873
0.0000732217322385
0.0000453901940946
0.0000283619940998
0.0000179320659971
0.0000115102112068
0.0000075209472540
0.0000050129680679
0.0000034132693587
0.0000023760830972
0.0000016916176130
0.0000012314988230
0.0000009163135754
0.0000006963082429
0.0000005398714286
0.0000004266173557
0.0000003431956547
0.0000002807259980
0.0534291986532990
0.0453129343921145
0.0378536518294159
0.0311079594595693
0.0251153871385691
0.0198950375903550
0.0154434225393916
0.0117339549491753
0.0087184059708729
0.0063303609582727
0.0044903651201433
0.0031121163910146
0.0021088400171764
0.0013989472278769
0.0009102630724827
0.0005824537633731
0.0003676800689820
0.0002298273614485
0.0001428331163923
0.0000886365107625
0.0000551594014745
0.0000345652365762
0.0000218933680244
0.0000140627662763
0.0000091854342065
0.0000061139259998
0.0000041532539296
0.0000028821179613
0.0000020439685436
0.0000014813911595
0.0000010968241366
0.0000008290749802
0.0000006392475783
0.0000005022625027
0.0000004017068293
0.0000003266753897
0.0579752121100498
0.0493579815506763
0.0414015937816170
0.0341716506535726
0.0277165770042304
0.0220637392416423
0.0172167333136009
0.0131543786673798
0.0098317978865033
0.0071836797836660
0.0051294567440225
0.0035797578978785
0.0024432348927558
0.0016327887132787
0.0010703889704334
0.0006900254189692
0.0004387522291796
0.0002761468146662
0.0001727125323001
0.0001077850424937
0.0000673977171227
0.0000423956333609
0.0000269271054542
0.0000173246398291
0.0000113221695021
0.0000075322115911
0.0000051089133768
0.0000035366719580
0.0000025000705339
0.0000018048672813
0.0000013303427918
0.0000010006324539
0.0000007674563901
0.0000005996682740
0.0000004768859596
0.0000003855746759
0.0628971045343526
0.0537355216174338
0.0452411281295760
0.0374888506430670
0.0305362163363888