# vtk DataFile Version 3.0
Cubed Sphere AHF mesh. Centered at (0,0,0) with radius 1.0. Scaling is (41,55,63).
ASCII
DATASET UNSTRUCTURED_GRID
POINTS 15978 double
-0.5773502691896258 -0.5773502691896258 -0.5773502691896258
-0.5576189073395618 -0.5869672708837492 -0.5869672708837492
-0.5368949876447042 -0.5965499862718936 -0.5965499862718936
-0.5151515151515151 -0.6060606060606060 -0.6060606060606060
-0.4923659639173310 -0.6154574548966637 -0.6154574548966637
-0.4685212856658182 -0.6246950475544243 -0.6246950475544243
-0.4436069753671345 -0.6337242505244779 -0.6337242505244779
-0.4176201680321030 -0.6424925662032355 -0.6424925662032355
-0.3905667329424716 -0.6509445549041193 -0.6509445549041193
-0.3624623234754152 -0.6590224063189367 -0.6590224063189367
-0.3333333333333333 -0.6666666666666666 -0.6666666666666666
-0.3032177042381441 -0.6738171205292092 -0.6738171205292092
-0.2721655269759086 -0.6804138174397717 -0.6804138174397717
-0.2402393780691031 -0.6863982230545802 -0.6863982230545802
-0.2075143391598223 -0.6917144638660746 -0.6917144638660746
-0.1740776559556979 -0.6963106238227914 -0.6963106238227914
-0.1400280084028009 -0.7001400420140049 -0.7001400420140049
-0.1054743830901944 -0.7031625539346300 -0.7031625539346300
-0.0705345615858598 -0.7053456158585983 -0.7053456158585983
-0.0353332626668786 -0.7066652533375732 -0.7066652533375732
0.0000000000000000 -0.7071067811865475 -0.7071067811865475
0.0353332626668787 -0.7066652533375732 -0.7066652533375732
0.0705345615858599 -0.7053456158585983 -0.7053456158585983
0.1054743830901946 -0.7031625539346300 -0.7031625539346300
0.1400280084028011 -0.7001400420140049 -0.7001400420140049
0.1740776559556979 -0.6963106238227914 -0.6963106238227914
0.2075143391598224 -0.6917144638660746 -0.6917144638660746
0.2402393780691031 -0.6863982230545802 -0.6863982230545802
0.2721655269759087 -0.6804138174397717 -0.6804138174397717
0.3032177042381442 -0.6738171205292091 -0.6738171205292091
0.3333333333333333 -0.6666666666666666 -0.6666666666666666
0.3624623234754152 -0.6590224063189367 -0.6590224063189367
0.3905667329424716 -0.6509445549041193 -0.6509445549041193
0.4176201680321032 -0.6424925662032355 -0.6424925662032355
0.4436069753671347 -0.6337242505244779 -0.6337242505244779
0.4685212856658182 -0.6246950475544243 -0.6246950475544243
0.4923659639173310 -0.6154574548966637 -0.6154574548966637
0.5151515151515151 -0.6060606060606060 -0.6060606060606060
0.5368949876447042 -0.5965499862718936 -0.5965499862718936
0.5576189073395619 -0.5869672708837492 -0.5869672708837492
0.5773502691896258 -0.5773502691896258 -0.5773502691896258
-0.5844758303396057 -0.5628285773640648 -0.5844758303396057
-0.5647365717562364 -0.5724425288757172 -0.5944595492170909
-0.5439782001113214 -0.5820342881849530 -0.6044202223459126
-0.5221707839986252 -0.5915660298023641 -0.6143185694101472
-0.4992888571603002 -0.6009958465818429 -0.6241110714503753
-0.4753124997134738 -0.6102777774098923 -0.6337499996179651
-0.4502284902347463 -0.6193619442382753 -0.6431835574782090
-0.4240315021597162 -0.6281948180143945 -0.6523561571687942
-0.3967253087334439 -0.6367196313005891 -0.6612088478890732
-0.3683239513308424 -0.6448769518250439 -0.6696799115106224
-0.3388528171493192 -0.6526054256209111 -0.6777056342986384
-0.3083495650688757 -0.6598426906823679 -0.6852212557086128
-0.2768648340374685 -0.6665264523124242 -0.6921620850936713
-0.2444626678685371 -0.6725956999557636 -0.6984647653386775
-0.2112205949019467 -0.6779920330185945 -0.7040686496731557
-0.1772293113188543 -0.6826610510059575 -0.7089172452754173
-0.1425919332176748 -0.6865537525295454 -0.7129596660883740
-0.1074228043445199 -0.6896278797425970 -0.7161520289634661
-0.0718458723193070 -0.6918491408525860 -0.7184587231930700
-0.0359926742367238 -0.6931922445591261 -0.7198534847344771
0.0000000000000000 -0.6936416870658707 -0.7203202134914810
0.0359926742367239 -0.6931922445591261 -0.7198534847344771
0.0718458723193071 -0.6918491408525860 -0.7184587231930700
0.1074228043445200 -0.6896278797425970 -0.7161520289634661
0.1425919332176749 -0.6865537525295454 -0.7129596660883740
0.1772293113188543 -0.6826610510059575 -0.7089172452754173
0.2112205949019468 -0.6779920330185945 -0.7040686496731557
0.2444626678685372 -0.6725956999557636 -0.6984647653386775
0.2768648340374686 -0.6665264523124242 -0.6921620850936713
0.3083495650688759 -0.6598426906823679 -0.6852212557086128
0.3388528171493192 -0.6526054256209111 -0.6777056342986384
0.3683239513308424 -0.6448769518250439 -0.6696799115106224
0.3967253087334440 -0.6367196313005891 -0.6612088478890732
0.4240315021597163 -0.6281948180143944 -0.6523561571687941
0.4502284902347464 -0.6193619442382753 -0.6431835574782090
0.4753124997134738 -0.6102777774098923 -0.6337499996179651
0.4992888571603002 -0.6009958465818429 -0.6241110714503753
0.5221707839986252 -0.5915660298023641 -0.6143185694101472
0.5439782001113214 -0.5820342881849528 -0.6044202223459125
0.5647365717562365 -0.5724425288757172 -0.5944595492170909
0.5844758303396057 -0.5628285773640648 -0.5844758303396057
-0.5915876910140926 -0.5477663805686043 -0.5915876910140926
-0.5718494999609404 -0.5573581870964331 -0.6019468420641477
-0.5510657463436627 -0.5669400682547970 -0.6122952737151808
-0.5292034160648550 -0.5764743094388399 -0.6225922541939471
-0.5062339332600092 -0.5859189042361217 -0.6327924165750115
-0.4821343160068474 -0.5952275506257375 -0.6428457546757965
-0.4568884184979227 -0.6043497599178872 -0.6526977407113181
-0.4304882325351134 -0.6132311004773695 -0.6622895885155591
-0.4029352107274176 -0.6218135968015703 -0.6715586845456960
-0.3742415628482350 -0.6300363010913047 -0.6804392051786091
-0.3444314663148461 -0.6378360487311965 -0.6888629326296921
-0.3135421228422244 -0.6451484009099269 -0.6967602729827210
-0.2816245873556342 -0.6519087670269310 -0.7040614683890856
-0.2487442936639043 -0.6580536869415459 -0.7106979818968696
-0.2149812055301598 -0.6635222392906168 -0.7166040184338661
-0.1804295326082096 -0.6682575281785542 -0.7217181304328385
-0.1451969686057487 -0.6722081879895777 -0.7259848430287439
-0.1094034335144750 -0.6753298365091052 -0.7293562234298335
-0.0731793313658328 -0.6775864015354892 -0.7317933136583283
-0.0366633673355826 -0.6789512469552346 -0.7332673467116534
0.0000000000000000 -0.6794080314983050 -0.7337606740181694
0.0366633673355827 -0.6789512469552346 -0.7332673467116534
0.0731793313658329 -0.6775864015354892 -0.7317933136583283
0.1094034335144751 -0.6753298365091052 -0.7293562234298335
0.1451969686057489 -0.6722081879895777 -0.7259848430287439
0.1804295326082096 -0.6682575281785542 -0.7217181304328385
0.2149812055301598 -0.6635222392906167 -0.7166040184338660
0.2487442936639044 -0.6580536869415459 -0.7106979818968696
0.2816245873556343 -0.6519087670269310 -0.7040614683890856
0.3135421228422245 -0.6451484009099268 -0.6967602729827209
0.3444314663148461 -0.6378360487311965 -0.6888629326296921
0.3742415628482350 -0.6300363010913047 -0.6804392051786091
0.4029352107274177 -0.6218135968015703 -0.6715586845456960
0.4304882325351134 -0.6132311004773694 -0.6622895885155590
0.4568884184979228 -0.6043497599178872 -0.6526977407113181
0.4821343160068474 -0.5952275506257375 -0.6428457546757965
0.5062339332600092 -0.5859189042361217 -0.6327924165750115
0.5292034160648551 -0.5764743094388399 -0.6225922541939471
0.5510657463436627 -0.5669400682547969 -0.6122952737151807
0.5718494999609404 -0.5573581870964330 -0.6019468420641476
0.5915876910140926 -0.5477663805686043 -0.5915876910140926
-0.5986710947139654 -0.5321520841901914 -0.5986710947139654
-0.5789429808444537 -0.5417010347082608 -0.6094136640467934
-0.5581430545491333 -0.5512523995546995 -0.6201589494990370
-0.5362350788570516 -0.5607687099158709 -0.6308647986553548
-0.5131872031397204 -0.5702080034885781 -0.6414840039246505
-0.4889731947412531 -0.5795237863600036 -0.6519642596550042
-0.4635737744123576 -0.5886651103648987 -0.6622482491605109
-0.4369780280975145 -0.5975767905607036 -0.6722738893807916
-0.4091848557930526 -0.6061997863600779 -0.6819747596550877
-0.3802044056011122 -0.6144717666280600 -0.6912807374565675
-0.3500594287129863 -0.6223278732675313 -0.7001188574259727
-0.3187864801677344 -0.6297016892202161 -0.7084144003727431
-0.2864368824315721 -0.6365264054034935 -0.7160922060789303
-0.2530773658563967 -0.6427361672543408 -0.7230781881611335
-0.2187903035486622 -0.6482675660701102 -0.7293010118288741
-0.1836734693877551 -0.6530612244897959 -0.7346938775510203
-0.1478392674549593 -0.6570634109109302 -0.7391963372747966
-0.1114134085593118 -0.6602276062774033 -0.7427560570620788
-0.0745330432909623 -0.6625159403641098 -0.7453304329096235
-0.0373443983402489 -0.6639004149377593 -0.7468879668049793
0.0000000000000000 -0.6643638388299197 -0.7474093186836597
0.0373443983402490 -0.6639004149377593 -0.7468879668049793
0.0745330432909624 -0.6625159403641098 -0.7453304329096235
0.1114134085593119 -0.6602276062774033 -0.7427560570620788
0.1478392674549595 -0.6570634109109302 -0.7391963372747966
0.1836734693877551 -0.6530612244897959 -0.7346938775510203
0.2187903035486622 -0.6482675660701102 -0.7293010118288741
0.2530773658563968 -0.6427361672543408 -0.7230781881611335
0.2864368824315722 -0.6365264054034935 -0.7160922060789303
0.3187864801677345 -0.6297016892202160 -0.7084144003727429
0.3500594287129863 -0.6223278732675313 -0.7001188574259727
0.3802044056011122 -0.6144717666280600 -0.6912807374565675
0.4091848557930526 -0.6061997863600779 -0.6819747596550876
0.4369780280975146 -0.5975767905607036 -0.6722738893807916
0.4635737744123578 -0.5886651103648987 -0.6622482491605109
0.4889731947412531 -0.5795237863600036 -0.6519642596550042
0.5131872031397204 -0.5702080034885781 -0.6414840039246505
0.5362350788570517 -0.5607687099158709 -0.6308647986553548
0.5581430545491333 -0.5512523995546994 -0.6201589494990369
0.5789429808444538 -0.5417010347082608 -0.6094136640467934
0.5986710947139654 -0.5321520841901914 -0.5986710947139654
-0.6057101211641792 -0.5159752883991157 -0.6057101211641792
[...]
POINT_DATA 15978
SCALARS scalars double 1
LOOKUP_TABLE default
0.1003569036714965
0.1002867189027927
0.1002284036176754
0.1001804145435029
0.1001413083406928
0.1001097555238404
0.1000845501720805
0.1000646152970403
0.1000490039846930
0.1000368966600141
0.1000275950187453
0.1000205133113262
0.1000151677396408
0.1000111647354706
0.1000081888366113
0.1000059907754870
0.1000043762630649
0.1000031958063859
0.1000023357578654
0.1000017106715754
0.1000012569439743
0.1000009276469747
0.1000006884187090
0.1000005142578641
0.1000003870656076
0.1000002937892579
0.1000002250389120
0.1000001740682360
0.1000001360307348
0.1000001074412936
0.1000000857887487
0.1000000692584189
0.1000000565340235
0.1000000466565332
0.1000000389236561
0.1000000328182233
0.1000000279570930
0.1000000240546067
0.1000000208963735
0.1000000183203927
0.1000000162034016
0.1004082107342098
0.1003279190552220
0.1002611344024420
0.1002061324153264
0.1001612903846790
0.1001251052485475
0.1000962068578828
0.1000733662266435
0.1000554987814107
0.1000416629186088
0.1000310544344133
0.1000229975888108
0.1000169336844159
0.1000124080762404
0.1000090564852960
0.1000065913808749
0.1000047890442744
0.1000034777538498
0.1000025273594579
0.1000018403609911
0.1000013444820262
0.1000009866403810
0.1000007281618409
0.1000005410568566
0.1000004051759489
0.1000003060707941
0.1000002334080869
0.1000001798072127
0.1000001399969287
0.1000001102084446
0.1000000877414074
0.1000000706549943
0.1000000575487508
0.1000000474073805
0.1000000394908785
0.1000000332567136
0.1000000283046179
0.1000000243373146
0.1000000211324907
0.1000000185227133
0.1000000163809731
0.1004681014521756
0.1003760748787484
0.1002994316797551
0.1002362479141167
0.1001847007978687
0.1001430916261571
0.1001098634504507
0.1000836130171284
0.1000630968321890
0.1000472315812868
0.1000350894675919
0.1000258892984071
0.1000189843299279
0.1000138479554731
0.1000100582975465
0.1000072826529425
0.1000052625671408
0.1000038001084579
0.1000027457022083
0.1000019876938628
0.1000014436535763
0.1000010533198664
0.1000007730076422
0.1000005712699318
0.1000004255953316
0.1000003199354681
0.1000002428804854
0.1000001863292620
0.1000001445301646
0.1000001133948644
0.1000000900106775
0.1000000722956551
0.1000000587554123
0.1000000483119811
0.1000000401833999
0.1000000337989296
0.1000000287392435
0.1000000246941155
0.1000000214323797
0.1000000187805107
0.1000000166072766
0.1005381302374783
0.1004324667209259
0.1003443353054068
0.1002715932984120
0.1002121956643982
0.1001642238466771
0.1001259088664918
0.1000956479289290
0.1000720141862878
0.1000537597566309
0.1000398125216940
0.1000292675888032
0.1000213745594530
0.1000155218810153
0.1000112195640316
0.1000080814397702
0.1000058079392744
0.1000041701318480
0.1000029955044583
0.1000021557251542
0.1000015564351864
0.1000011289671773
0.1000008237917370
0.1000006054464319
0.1000004486889451
0.1000003356293799
0.1000002536245699
0.1000001937516970
0.1000001497136318
0.1000001170606521
0.1000000926407950
0.1000000742135665
0.1000000601793224
0.1000000493899942
0.1000000410167426
0.1000000344573224
0.1000000292711087
0.1000000251333836
0.1000000218030508
0.1000000190997278
0.1000000168874097
0.1006201394326690
0.1004986179161026
0.1003970869898383
0.1003131657775694
0.1002445635781935
0.1001891156840650
0.1001448130793390
0.1001098248889024
0.1000825129329640
0.1000614382826976
0.1000453602505093
0.1000332287249350
0.1000241711232451
0.1000174754498282
0.1000125710031569
0.1000090081800681
0.1000064386146116
0.1000045966036109
0.1000032824593400
0.1000023481329951
0.1000016852012377
0.1000012151184835
0.1000008815132860
0.1000006442416711
0.1000004748914022
0.1000003534447198
0.1000002658398746
0.1000002022131335
0.1000001556453877
0.1000001212764790
0.1000000956836564
0.1000000764475498
0.1000000618500501
0.1000000506643378
0.1000000420089691
0.1000000352463567
0.1000000299119737
0.1000000256648183
0.1000000222526121
0.1000000194872287
0.1000000172272525
0.1007163101547788
0.1005763392727235
0.1004591685291961
0.1003621597555181
0.1002827523119057
0.1002185071136861
0.1001671442817475
0.1001265728302013
0.1000949113488924
0.1000704992803679
0.1000518990604464
0.1000378900117693
0.1000274553795721
0.1000197642255528
0.1000141500238552
0.1000100877385450
0.1000071709381248
0.1000050901722736
0.1000036134589017
0.1000025693609646
0.1000018328140313
0.1000013136214874
0.1000009473713402
0.1000006884402523
0.1000005047218499
0.1000003737296889
0.1000002797636165
0.1000002118779696
0.1000001624414483
0.1000001261257592
0.1000000992003728
0.1000000790432160
0.1000000638022616
0.1000000521618261
0.1000000431811727
0.1000000361828943
0.1000000306755247
0.1000000262996894
0.1000000227904702
0.1000000199509650
0.1000000176336062
0.1008292205572677
0.1006677804864474
0.1005323463515521
0.1004200046967285
0.1003279003710715
0.1002532900711690
0.1001935894726832
0.1001464117921586
0.1001095962142847
0.1000812253677763
0.1000596318531950
0.1000433946216075
0.1000313266782040
0.1000224560625236
0.1000160022920472
0.1000113504438532
0.1000080248233806
0.1000056637921702
0.1000039968731460
0.1000028247952121
0.1000020027359005
0.1000014267064345
0.1000010228100015
0.1000007389849973
0.1000005388026930
0.1000003969007720
0.1000002956788609
0.1000002229419075
0.1000001702395891
0.1000001317073152
0.1000001032631733
0.1000000820543516
0.1000000660767473
0.1000000539139449
0.1000000445580726
0.1000000372866584
0.1000000315777419
0.1000000270511329
0.1000000234275708
0.1000000205001734
0.1000000181143583
0.1009619119326727
0.1007754890140953
0.1006187229837161
0.1004884092502449
0.1003813740641622
0.1002945389489351
0.1002249790084711
0.1001699722511699
0.1001270376934737
0.1000939608569870
0.1000688062608991
0.1000499175165767
0.1000359065277275
0.1000256339775857
0.1000181836715448
0.1000128333773593
0.1000090245951601
0.1000063332673262
0.1000044428976369
0.1000031209851538
0.1000021991688872
0.1000015570745421
0.1000011095746190
0.1000007970129124
0.1000005778828426
0.1000004234579557
0.1000003139246288
0.1000002356387784
0.1000001792040337
0.1000001381386578
0.1000001079577437
0.1000000855446166
0.1000000687216777
0.1000000559577966
0.1000000461687376
0.1000000385807966
0.1000000326373437
0.1000000279345068
0.1000000241766870
0.1000000211456134
0.1000000186786791
0.1011179628204879
0.1009024767495374
0.1007207959091426
0.1005694121840792
0.1004448106778844
0.1003435464178350
0.1002623156726410
0.1001980181816514
0.1001478072106722
0.1001091252903892
0.1000797246598598
0.1000576726873901
0.1000413437121148
0.1000293996897925
0.1000207626241518
0.1000145819710659
0.1000102000363899
0.1000071179282713
0.1000049639865285
0.1000034659185768
0.1000024272288914
0.1000017080082391
0.1000012097818148
0.1000008638999697
0.1000006228666336
0.1000004540036320
0.1000003349084352
0.1000002502489920
0.1000001895312479
0.1000001455600320
0.1000001133861033
0.1000000895896280
0.1000000717941400
0.1000000583372539
0.1000000480474662
0.1000000400925635
0.1000000338763245
0.1000000289678203
0.1000000250527674
0.1000000218998511
0.1000000193372575
0.1013015708941880
0.1010522945303657
0.1008415240501584
0.1006654405133552
0.1005201682373687
0.1004018650999678
0.1003068087944590
0.1002314743478406
0.1001725987696535
0.1001272297007414
0.1000927562777854
0.1000669219570963
0.1000478205460483
0.1000338779676952
0.1000238231689007
0.1000166519842604
0.1000115876866759
0.1000080414732755
0.1000055753916421
0.1000038693644883
0.1000026931628469
0.1000018835086756
0.1000013260068191
0.1000009413169322
0.1000006748498446
0.1000004892661207
0.1000003591218675
0.1000002671100196
0.1000002014571151
0.1000001541394158
0.1000001196701520
0.1000000942795234
0.1000000753620239
0.1000000611043709
0.1000000502348612
0.1000000418541516
0.1000000353206065
0.1000000301722528
0.1000000260733534
0.1000000227776008
0.1000000201025824
0.1015176418465819
0.1012291140409114
0.1009844017359005
0.1007793749208249
0.1006097821250119
0.1004713554807490
0.1003599138632487
0.1002714582863162
0.1002022541547869
0.1001488959862930
0.1001083517273084
0.1000779856201657
0.1000555604799554
0.1000392219429050
0.1000274685159033
0.1000191119404660
0.1000132324485865
0.1000091330118055
0.1000062958325751
0.1000043432999969
0.1000030046194323
0.1000020884672428
0.1000014613924335
0.1000010312989913
0.1000007351646060
0.1000005301289685
0.1000003871599682
0.1000002866294167
0.1000002152658336
0.1000001640787076
0.1000001269560501
0.1000000997221175
0.1000000795063374
0.1000000643211119
0.1000000527791413
0.1000000439037023
0.1000000370008309
0.1000000315727811
0.1000000272590842
0.1000000237961348
0.1000000209892798
0.1017718837429505
0.1014378160290952
0.1011535394759291
0.1009146221331332
0.1007164284969967
0.1005542402039910
0.1004233779185281
0.1003193173343525
0.1002377923933453
0.1001748797681822
0.1001270602956624
0.1000912551965146
0.1000648372803533
0.1000456195643295
0.1000318255046350
0.1000220461181779
0.1000151895670806
0.1000104283548315
0.1000071483276914
0.1000049024408684
0.1000033709860974
0.1000023288793612
0.1000016197849369
0.1000011363326423
0.1000008054354130
0.1000005776674718
0.1000004197453711
0.1000003093010177
0.1000002313009630
0.1000001756213920
0.1000001354196336
0.1000001060467958
0.1000000843240559
0.1000000680614719
0.1000000557377450
0.1000000462865384
0.1000000389533185
0.1000000331989394
0.1000000286343045
0.1000000249757766
0.1000000220145166
0.1020709043412560
0.1016840828907993
0.1013537501138251
0.1010751932940864
0.1008433939367326
0.1006531645089984
0.1004992907139222
0.1003766708641211
0.1002804437335266
0.1002060970242919
0.1001495502842854
0.1001072085678364
0.1000759860127506
0.1000533013759203
0.1000370499871725
0.1000255581992355
0.1000175270563118
0.1000119716035732
0.1000081612210182
0.1000055648991088
0.1000038038077621
0.1000026121105407
0.1000018059034239
0.1000012594640031
0.1000008876489742
0.1000006331942065
0.1000004577583683
0.1000003357250873
0.1000002499791492
0.1000001890620470
0.1000001452731154
0.1000001134093211
0.1000000899316299
0.1000000724140794
0.1000000591792943
0.1000000490566680
0.1000000412212390
0.1000000350857399
0.1000000302278000
0.1000000263404945
0.1000000231984859
0.1024223076745924
0.1019744925738397
0.1015906379562133
0.1012657865334285
0.1009945500834250
0.1007712620070980
0.1005901412213008
0.1004454575663323
0.1003316881727339
0.1002436546504157
0.1001766326060161
0.1001264277175659
0.1000894160343157
0.1000625497961158
0.1000433333002079
0.1000297756852363
0.1000203286551516
0.1000138170946190
0.1000093694451944
0.1000063529947856
0.1000043173053295
0.1000029472266726
0.1000020255504011
0.1000014044336821
0.1000009842412345
0.1000006983157560
0.1000005022743557
0.1000003666333944
0.1000002718071788
0.1000002047581377
0.1000001567733809
0.1000001219977699
0.1000000964693052
0.1000000774853939
0.1000000631859985
0.1000000522786200
0.1000000438560327
0.1000000372747897
0.1000000320736852
0.1000000279186160
0.1000000245649881
0.1028347847600100
0.1023166094092191
0.1018706872448934
0.1014918708418522
0.1011744310410867
0.1009122242225373
0.1006988784257720
0.1005279871558744
0.1003932982264078
0.1002888848604784
0.1002092876909143
0.1001496192001940
0.1001056261503104
0.1000737100514068
0.1000509099602920
0.1000348551917923
0.1000236973961330
0.1000160317639315
0.1000108160650197
0.1000072942529805
0.1000049290149940
0.1000033454025851
0.1000022858729375
0.1000015758443243
0.1000010982056050
0.1000007750033011
0.1000005546104251
0.1000004029203920
0.1000002974031642
0.1000002231446447
0.1000001702322579
0.1000001320398646
0.1000001041064470
0.1000000834036343
0.1000000678565994
0.1000000560296856
0.1000000469191411
0.1000000398156451
0.1000000342124768
0.1000000297436889
0.1000000261421288
0.1033181916775753
0.1027190659127152
0.1022013448709346
0.1017597670246711
0.1013883101920278
0.1010803713146674
0.1008289745324800
0.1006269952150126
0.1004673851286200
0.1003433829751041
0.1002486955011667
0.1001776373016919
0.1001252219876230
0.1000872028593170
0.1000600666876250
0.1000409887180244
0.1000277598692198
0.1000186979933107
0.1000125541488588
0.1000084226197196
0.1000056605719215
0.1000038204249581
0.1000025956852022
0.1000017793680634
0.1000012332272082
0.1000008656802675
0.1000006163832386
0.1000004456819386
0.1000003275228322
0.1000002447521920
0.1000001860292227
0.1000001438120267
0.1000001130480956
0.1000000903236040
0.1000000733099785
0.1000000604026549
0.1000000504841126
0.1000000427674536
0.1000000366923906
0.1000000318555180
0.1000000279631567
0.1038836065334444
0.1031916278769491
0.1025910905632738
0.1020767199432658
0.1016422716181541
0.1012807201497742
0.1009844876470455
0.1007456990242833
0.1005564469759657
0.1004090476360474
0.1002962680870933
0.1002115096000556
0.1001489354742490
0.1001035388551722
0.1000711528059614
0.1000484109584453
0.1000326712479332
0.1000219169979931
0.1000146490146896
0.1000097799321052
0.1000065386637630
0.1000043893074743
0.1000029658646908
0.1000020220022337
0.1000013938487670
0.1000009733308164
0.1000006895807298
0.1000004962632813
0.1000003630920877
0.1000002702294819
0.1000002046271001
0.1000001576505415
0.1000001235430345
0.1000000984326131
0.1000000796895701
0.1000000655091555
0.1000000546391637
0.1000000462009449
0.1000000395709086
0.1000000343014123
0.1000000300674682
0.1045433551119459
0.1037452333061055
0.1030494860130210
0.1024509545353527
0.1019432697214296
0.1015190444295167
0.1011701197130650
0.1008878511538200
0.1006634164530705
0.1004881218046234
0.1003536836099124
0.1002524642742212
0.1001776460685106
0.1001233345988488
0.1000845919696044
0.1000574076690152
0.1000386211159666
0.1000258128000137
0.1000171808919704
0.1000114176765024
0.1000075961799628
0.1000050730372201
0.1000034098356357
0.1000023123827240
0.1000015856745754
0.1000011016335636
0.1000007766506169
0.1000005563183343
0.1000004052472429
0.1000003003709933
0.1000002265914260
0.1000001739653046
0.1000001358937029
0.1000001079577372
0.1000000871687580
0.1000000714837219
0.1000000594902905
0.1000000502008416
0.1000000429166701
0.1000000371376865
0.1000000325018112
0.1053109935237398
0.1043919941062107
0.1035871926713845
0.1028917063608919
0.1022991689335818
0.1018019199838217
0.1013912640423777
0.1010577863266640
0.1007917047220374
0.1005832320535949
0.1004229201031635
0.1003019580276300
0.1002124030422761
0.1001473297695464
0.1001008950225751
0.1000683250106505
0.1000458400817635
0.1000305368048585
0.1000202480272170
0.1000133990629342
0.1000088735809844
0.1000058974712832
0.1000039441537121
0.1000026611651263
0.1000018156196984
0.1000012551254937
0.1000008806091526
0.1000006278826120
0.1000004553845440
0.1000003361510772
0.1000002526142620
0.1000001932567066
0.1000001504683495
0.1000001191746975
0.1000000959574593
0.1000000784887473
0.1000000651650442
0.1000000548687750
0.1000000468117512
0.1000000404314634
0.1000000353217269
0.1062012351178938
0.1051451481712184
0.1042159465045142
0.1034092158469902
0.1027187537828766
0.1021367467360339
0.1016540352614780
0.1012604556949784
0.1009452368671396
0.1006974226701800
0.1005062864538135
0.1003617028892944
0.1002544476823002
0.1001764048499925
0.1001206735911932
0.1000815796643196
0.1000546070907041
0.1000362729544754
0.1000239702372642
0.1000158014318940
0.1000104205062033
0.1000068944004971
0.1000045892057446
0.1000030814840905
0.1000020922120119
0.1000014394015018
0.1000010051739386
0.1000007134624929
0.1000005152208601
0.1000003787657521
0.1000002835433798
0.1000002161363060
0.1000001677158905
0.1000001324186967
0.1000001063101407
0.1000000867204961
0.1000000718171012
0.1000000603268038
0.1000000513544074
0.1000000442628365
0.1000000385932727
0.1072298086410696
0.1060189488945616
0.1049484770886250
0.1040146742699653
0.1032116982834242
0.1025317374551562
0.1019652730918522
0.1015014413237490
0.1011284730580509
0.1008341800194933
0.1006064471969061
0.1004336894518591
0.1003052337413945
0.1002115982167148
0.1001446537458292
0.1000976693369980
0.1000652572346218
0.1000432433638076
0.1000284928765743
0.1000187189894343
0.1000122976288781
0.1000081027924517
0.1000053700361557
0.1000035895007161
0.1000024259547210
0.1000016613552483
0.1000011549249255
0.1000008161437608
0.1000005868676268
0.1000004296836828
0.1000003204178652
0.1000002433520370
0.1000001881840081
0.1000001480975963
0.1000001185355463
0.1000000964163847
0.1000000796317839
0.1000000667216534
0.1000000566623670
0.1000000487274579
0.1000000423950782
0.1084132354168740
0.1070284795199736
0.1057983584188943
0.1047201091429984
0.1037884829380985
0.1029958625032032
0.1023325103255551
0.1017869425555830
0.1013464084883281
0.1009974415906737
0.1007264368162252
0.1005202033556174
0.1003664438770471
0.1002541211053322
0.1001736887460513
0.1001171830574274
0.1000781897141820
0.1000517142578225
0.1000339911310045
0.1000222658355420
0.1000145787497880
0.1000095702171932
0.1000063173076873
0.1000042050459687
0.1000028297563319
0.1000019294668912
0.1000013354978243
0.1000009397225397
0.1000006729203058
0.1000004907079677
0.1000003645113107
0.1000002758187928
0.1000002125410955
0.1000001667078766
0.1000001330084621
0.1000001078637664
0.1000000888327056
0.1000000742298037
0.1000000628767742
0.1000000539396277
0.1000000468207914
0.1097685154874983
0.1081893814568404
0.1067797800369913
0.1055381974318206
0.1044602479524054
0.1035387396992911
0.1027638949542527
0.1021237252997693
0.1016045443813011
0.1011915833366145
0.1008696584582919
0.1006238311215071
0.1004399992195334
0.1003053684455336
0.1002087695254784
0.1001408104038903
0.1000938754341755
0.1000620019114458
0.1000406744788698
0.1000265792079453
0.1000173530964926
0.1000113544454600
0.1000074683967786
0.1000049523645404
0.1000033194333952
0.1000022541425794
0.1000015538139472
0.1000010888617429
0.1000007765657057
0.1000005640504698
0.1000004173838635
0.1000003146553078
0.1000002416027210
0.1000001888538697
0.1000001501838744
0.1000001214104883
0.1000000996897396
0.1000000830635780
0.1000000701668942
0.1000000600359710
0.1000000519819820
0.1113127164436951
0.1095174890023937
0.1079072298688897
0.1064819972388503
0.1052385728972001
0.1041704595089335
0.1032680569977755
0.1025190254579105
0.1019088222032620
0.1014213785477487
0.1010398614762632
0.1007474509081640
0.1005280587086044
0.1003669231217377
0.1002510312165395
0.1001693485345585
0.1001128635157647
0.1000744781603778
0.1000487910721344
0.1000318228083190
0.1000207277619376
0.1000135251900322
0.1000088686132139
0.1000058609577791
0.1000039142883507
0.1000026481091351
0.1000018183498349
0.1000012692759001
0.1000009017094488
0.1000006524204403
0.1000004809444457
0.1000003612283169
0.1000002763633356
0.1000002152708029
0.1000001706139216
0.1000001374775147
0.1000001125285333
0.1000000934783970
0.1000000787357072
0.1000000671797980
0.1000000580115752
0.1130624641708969
0.1110283679922952
0.1091950847149862
0.1075645925318913
0.1061351763225572
0.1049013383393494
0.1038539124765912
0.1029803989783959
0.1022655139721802
0.1016919218246536
0.1012410922362010
0.1008942035862937
0.1006330045533918
0.1004405509011992
0.1003017537199270
0.1002037056408337
0.1001357858140616
0.1000895749073618
0.1000586316911631
0.1000381900122362
0.1000248301746470
0.1000161659355487
0.1000105725188472
0.1000069665158994
0.1000046377601765
0.1000031268648842
0.1000021394487733
0.1000014879466176
0.1000010531255912
0.1000007591290881
0.1000005575244432
0.1000004172049871
0.1000003180339755
0.1000002468522150
0.1000001949680621
0.1000001565739349
0.1000001277418051
0.1000001057813795
0.1000000888265277
0.1000000755662523
0.1000000650678968
0.1150333418651072
0.1127367627060841
0.1106571106734752
0.1087986512337502
0.1071615338579479
0.1057415969729569
0.1045304004111465
0.1035155136727281
0.1026810634525813
0.1020085129745481
0.1014776133569152
0.1010674398706211
0.1007574102498634
0.1005281831909520
0.1003623541661692
0.1002448992668971
0.1001633583661294
0.1001077869146861
0.1000705328255975
0.1000459066929598
0.1000298104450163
0.1000193757715724
0.1000126453013613
0.1000083119184476