# vtk DataFile Version 3.0
Cubed Sphere AHF mesh. Centered at (0,0,0) with radius 1.0. Scaling is (58,78,89).
ASCII
DATASET UNSTRUCTURED_GRID
POINTS 32364 double
-0.5773502691896258 -0.5773502691896258 -0.5773502691896258
-0.5636062459022573 -0.5841010184805212 -0.5841010184805212
-0.5493776820563749 -0.5908401486266673 -0.5908401486266673
-0.5346546441640730 -0.5975551905363170 -0.5975551905363170
-0.5194281433792330 -0.6042327382166589 -0.6042327382166589
-0.5036902980891256 -0.6108584466187268 -0.6108584466187268
-0.4874345053884621 -0.6174170401587186 -0.6174170401587186
-0.4706556199508832 -0.6238923334232638 -0.6238923334232638
-0.4533501383746329 -0.6302672655452214 -0.6302672655452214
-0.4355163866123253 -0.6365239496641677 -0.6365239496641677
-0.4171547076117248 -0.6426437387531977 -0.6426437387531977
-0.3982676458116771 -0.6486073088933028 -0.6486073088933028
-0.3788601246750599 -0.6543947608023761 -0.6543947608023761
-0.3589396130228924 -0.6599857400743505 -0.6599857400743505
-0.3385162755876242 -0.6653595761549854 -0.6653595761549854
-0.3176031029582635 -0.6704954395785562 -0.6704954395785562
-0.2962160159751226 -0.6753725164232796 -0.6753725164232796
-0.2743739396759521 -0.6799701983273594 -0.6799701983273594
-0.2520988421229669 -0.6842682857623387 -0.6842682857623387
-0.2294157338705618 -0.6882472016116853 -0.6882472016116853
-0.2063526244766644 -0.6918882114805804 -0.6918882114805804
-0.1829404333161506 -0.6951736466013722 -0.6951736466013722
-0.1592128530093341 -0.6980871247332342 -0.6980871247332342
-0.1352061650053223 -0.7006137641184882 -0.7006137641184882
-0.1109590082182964 -0.7027403853825437 -0.7027403853825437
-0.0865121030511881 -0.7044556962739603 -0.7044556962739603
-0.0619079345922315 -0.7057504543514386 -0.7057504543514386
-0.0371904001652801 -0.7066176031403217 -0.7066176031403217
-0.0124044276823680 -0.7070523778949735 -0.7070523778949735
0.0124044276823680 -0.7070523778949735 -0.7070523778949735
0.0371904001652801 -0.7066176031403217 -0.7066176031403217
0.0619079345922313 -0.7057504543514386 -0.7057504543514386
0.0865121030511881 -0.7044556962739603 -0.7044556962739603
0.1109590082182964 -0.7027403853825437 -0.7027403853825437
0.1352061650053223 -0.7006137641184883 -0.7006137641184883
0.1592128530093340 -0.6980871247332342 -0.6980871247332342
0.1829404333161505 -0.6951736466013722 -0.6951736466013722
0.2063526244766644 -0.6918882114805804 -0.6918882114805804
0.2294157338705617 -0.6882472016116853 -0.6882472016116853
0.2520988421229668 -0.6842682857623388 -0.6842682857623388
0.2743739396759520 -0.6799701983273594 -0.6799701983273594
0.2962160159751226 -0.6753725164232796 -0.6753725164232796
0.3176031029582634 -0.6704954395785562 -0.6704954395785562
0.3385162755876240 -0.6653595761549854 -0.6653595761549854
0.3589396130228923 -0.6599857400743506 -0.6599857400743506
0.3788601246750599 -0.6543947608023761 -0.6543947608023761
0.3982676458116771 -0.6486073088933028 -0.6486073088933028
0.4171547076117247 -0.6426437387531977 -0.6426437387531977
0.4355163866123252 -0.6365239496641677 -0.6365239496641677
0.4533501383746329 -0.6302672655452214 -0.6302672655452214
0.4706556199508832 -0.6238923334232638 -0.6238923334232638
0.4874345053884619 -0.6174170401587186 -0.6174170401587186
0.5036902980891256 -0.6108584466187268 -0.6108584466187268
0.5194281433792330 -0.6042327382166589 -0.6042327382166589
0.5346546441640732 -0.5975551905363171 -0.5975551905363171
0.5493776820563747 -0.5908401486266673 -0.5908401486266673
0.5636062459022573 -0.5841010184805212 -0.5841010184805212
0.5773502691896258 -0.5773502691896258 -0.5773502691896258
-0.5823482120067471 -0.5672222844221563 -0.5823482120067471
-0.5686015041479511 -0.5739720024161726 -0.5892779224806038
-0.5543613793017877 -0.5807142603565653 -0.5961999739660736
-0.5396172017172698 -0.5874366023278147 -0.6031015783898898
-0.5243592737797673 -0.5941256017515254 -0.6099689511315660
-0.5085790059995161 -0.6007668556639766 -0.6167873051483493
-0.4922690970361088 -0.6073449898497446 -0.6235408562457377
-0.4754237222806342 -0.6138436764571764 -0.6302128411627010
-0.4580387290433784 -0.6202456657144259 -0.6367855501334773
-0.4401118358856425 -0.6265328333037368 -0.6432403755251698
-0.4216428331020973 -0.6326862448267694 -0.6495578780221499
-0.4026337808224973 -0.6386862385959836 -0.6557178716252099
-0.3830892006803768 -0.6445125277090163 -0.6616995284479235
-0.3630162565178202 -0.6501443219998665 -0.6674815039198629
-0.3424249191895600 -0.6555604700113610 -0.6730420825449972
-0.3213281102292406 -0.6607396206012522 -0.6783593438172857
-0.2997418189795416 -0.6656604031883326 -0.6834113472733548
-0.2776851877988131 -0.6703016249801954 -0.6881763349796672
-0.2551805601692544 -0.6746424828222403 -0.6926329490308334
-0.2322534869683977 -0.6786627865959671 -0.6967604609051929
-0.2089326868403437 -0.6823431904067755 -0.7005390088176229
-0.1852499575173764 -0.6856654271747047 -0.7039498385660301
-0.1612400360834841 -0.6886125417151794 -0.7069755428275842
-0.1369404075104401 -0.6911691170096000 -0.7096002934631894
-0.1123910622900199 -0.6933214881527201 -0.7118100611701260
-0.0876342055734455 -0.6950579384535791 -0.7135928168123412
-0.0627139218398893 -0.6963688723779915 -0.7149387089747379
-0.0376758006704515 -0.6972469604596545 -0.7158402127385786
-0.0125665306202141 -0.6976872519664314 -0.7162922453522029
0.0125665306202141 -0.6976872519664314 -0.7162922453522029
0.0376758006704515 -0.6972469604596545 -0.7158402127385786
0.0627139218398892 -0.6963688723779915 -0.7149387089747379
0.0876342055734454 -0.6950579384535791 -0.7135928168123412
0.1123910622900199 -0.6933214881527201 -0.7118100611701260
0.1369404075104400 -0.6911691170096000 -0.7096002934631894
0.1612400360834840 -0.6886125417151794 -0.7069755428275842
0.1852499575173763 -0.6856654271747047 -0.7039498385660301
0.2089326868403437 -0.6823431904067755 -0.7005390088176229
0.2322534869683976 -0.6786627865959671 -0.6967604609051929
0.2551805601692543 -0.6746424828222403 -0.6926329490308334
0.2776851877988131 -0.6703016249801954 -0.6881763349796672
0.2997418189795416 -0.6656604031883326 -0.6834113472733548
0.3213281102292405 -0.6607396206012522 -0.6783593438172857
0.3424249191895599 -0.6555604700113610 -0.6730420825449973
0.3630162565178202 -0.6501443219998665 -0.6674815039198629
0.3830892006803768 -0.6445125277090163 -0.6616995284479235
0.4026337808224972 -0.6386862385959836 -0.6557178716252099
0.4216428331020972 -0.6326862448267694 -0.6495578780221499
0.4401118358856424 -0.6265328333037368 -0.6432403755251698
0.4580387290433784 -0.6202456657144259 -0.6367855501334773
0.4754237222806341 -0.6138436764571764 -0.6302128411627010
0.4922690970361087 -0.6073449898497446 -0.6235408562457377
0.5085790059995160 -0.6007668556639766 -0.6167873051483493
0.5243592737797673 -0.5941256017515254 -0.6099689511315660
0.5396172017172697 -0.5874366023278147 -0.6031015783898898
0.5543613793017876 -0.5807142603565653 -0.5961999739660736
0.5686015041479511 -0.5739720024161726 -0.5892779224806040
0.5823482120067471 -0.5672222844221563 -0.5823482120067471
-0.5873414981864823 -0.5568302515274443 -0.5873414981864823
-0.5735951840168357 -0.5635725054767541 -0.5944531907083570
-0.5593466052418612 -0.5703114982630200 -0.6015614433733224
-0.5445844004946460 -0.5770348078579633 -0.6086531534940162
-0.5292981372837300 -0.5837290085442884 -0.6157141596974002
-0.5134784894586029 -0.5903796614084682 -0.6227292318966035
-0.4971174259474849 -0.5969713158347719 -0.6296820728668142
-0.4802084093073170 -0.6034875237474316 -0.6365553332678389
-0.4627466021152837 -0.6099108683565712 -0.6433306419651504
-0.4447290786770509 -0.6162230091159536 -0.6499886534510744
-0.4261550389423770 -0.6224047444855144 -0.6565091140463646
-0.4070260209220129 -0.6284360938985141 -0.6628709483587066
-0.3873461073143091 -0.6342964000530658 -0.6690523671792612
-0.3671221215042862 -0.6399644522745432 -0.6750309976046552
-0.3463638076252772 -0.6454186312265017 -0.6807840356772689
-0.3250839890102788 -0.6506370746857960 -0.6862884212439219
-0.3032986991452410 -0.6555978634510897 -0.6915210340511494
-0.2810272792075331 -0.6602792257383088 -0.6964589093404079
-0.2582924364641439 -0.6646597576544854 -0.7010794704026763
-0.2351202582435119 -0.6687186565627155 -0.7053607747305356
-0.2115401768998038 -0.6724359633919659 -0.7092817696052243
-0.1875848821631324 -0.6757928092474405 -0.7128225522199030
-0.1632901785016246 -0.6787716610841757 -0.7159646288148155
-0.1386947865814907 -0.6813565607621990 -0.7186911668313606
-0.1138400895509382 -0.6835333515461095 -0.7209872338226087
-0.0887698266272871 -0.6852898860781844 -0.7228400168221946
-0.0635297382539587 -0.6866162100642129 -0.7242390160951288
-0.0381671688253595 -0.6875047163736822 -0.7251762076818291
-0.0127306345595263 -0.6879502649634901 -0.7256461698929965
0.0127306345595263 -0.6879502649634901 -0.7256461698929965
0.0381671688253594 -0.6875047163736822 -0.7251762076818291
0.0635297382539585 -0.6866162100642129 -0.7242390160951288
0.0887698266272870 -0.6852898860781844 -0.7228400168221946
0.1138400895509382 -0.6835333515461095 -0.7209872338226087
0.1386947865814906 -0.6813565607621990 -0.7186911668313606
0.1632901785016245 -0.6787716610841757 -0.7159646288148155
0.1875848821631323 -0.6757928092474405 -0.7128225522199030
0.2115401768998038 -0.6724359633919659 -0.7092817696052243
0.2351202582435118 -0.6687186565627155 -0.7053607747305356
0.2582924364641438 -0.6646597576544854 -0.7010794704026763
0.2810272792075330 -0.6602792257383088 -0.6964589093404079
0.3032986991452410 -0.6555978634510897 -0.6915210340511494
0.3250839890102787 -0.6506370746857961 -0.6862884212439220
0.3463638076252771 -0.6454186312265018 -0.6807840356772690
0.3671221215042861 -0.6399644522745432 -0.6750309976046552
0.3873461073143091 -0.6342964000530658 -0.6690523671792612
0.4070260209220128 -0.6284360938985141 -0.6628709483587066
0.4261550389423769 -0.6224047444855145 -0.6565091140463647
0.4447290786770509 -0.6162230091159536 -0.6499886534510744
[...]
POINT_DATA 32364
SCALARS scalars double 1
LOOKUP_TABLE default
0.1003569036714965
0.1003063368881427
0.1002618486878856
0.1002228917777000
0.1001889407074347
0.1001594947439408
0.1001340802774821
0.1001122527280395
0.1000935979332209
0.1000777330142507
0.1000643067312485
0.1000529993530511
0.1000435220795011
0.1000356160648616
0.1000290510993320
0.1000236240112466
0.1000191568552847
0.1000154949519603
0.1000125048410108
0.1000100722064215
0.1000080998241820
0.1000065055760102
0.1000052205637443
0.1000041873504346
0.1000033583458145
0.1000026943461851
0.1000021632320707
0.1000017388214586
0.1000013998720912
0.1000011292231057
0.1000009130642164
0.1000007403194856
0.1000006021323499
0.1000004914388008
0.1000004026162945
0.1000003311969342
0.1000002736346119
0.1000002271170074
0.1000001894145499
0.1000001587595984
0.1000001337501533
0.1000001132733600
0.1000000964448932
0.1000000825610252
0.1000000710607830
0.1000000614961034
0.1000000535083122
0.1000000468095905
0.1000000411683702
0.1000000363978188
0.1000000323467529
0.1000000288924611
0.1000000259350250
0.1000000233928209
0.1000000211989478
0.1000000192983869
0.1000000176457363
0.1000000162034016
0.1003920499659904
0.1003364975013732
0.1002875958900730
0.1002447546553335
0.1002074050766036
0.1001750035703170
0.1001470345730057
0.1001230128832625
0.1001024854346691
0.1000850324884812
0.1000702682518545
0.1000578409438921
0.1000474323469983
0.1000387568942029
0.1000315603536827
0.1000256181792049
0.1000207335994409
0.1000167355200130
0.1000134763099584
0.1000108295393872
0.1000086877280108
0.1000069601555296
0.1000055707752566
0.1000044562624349
0.1000035642190652
0.1000028515481405
0.1000022830023492
0.1000018299057562
0.1000014690417997
0.1000011816971362
0.1000009528483247
0.1000007704769093
0.1000006249979487
0.1000005087872490
0.1000004157932911
0.1000003412209315
0.1000002812752463
0.1000002329552665
0.1000001938887249
0.1000001622002450
0.1000001364066024
0.1000001153337649
0.1000000980513553
0.1000000838209858
0.1000000720555919
0.1000000622874591
0.1000000541430990
0.1000000473235128
0.1000000415886824
0.1000000367453785
0.1000000326375658
0.1000000291388448
0.1000000261464879
0.1000000235767255
0.1000000213610139
0.1000000194430731
0.1000000177765302
0.1000000163230410
0.1004312088688437
0.1003701227638008
0.1003163165551167
0.1002691536692422
0.1002280189071221
0.1001923223976429
0.1001615030260675
0.1001350312807085
0.1001124114781774
0.1000931833462441
0.1000769229627983
0.1000632430686652
0.1000517927901468
0.1000422568232305
0.1000343541446574
0.1000278363248934
0.1000224855241325
0.1000181122546994
0.1000145529917515
0.1000116677094073
0.1000093374119228
0.1000074617199992
0.1000059565615048
0.1000047520045773
0.1000037902599345
0.1000030238688349
0.1000024140839189
0.1000019294424200
0.1000015445250747
0.1000012388894945
0.1000009961636813
0.1000008032835942
0.1000006498579904
0.1000005276439344
0.1000004301171671
0.1000003521227405
0.1000002895927898
0.1000002393198770
0.1000001987759068
0.1000001659681062
0.1000001393249235
0.1000001176059279
0.1000000998308487
0.1000000852238073
0.1000000731695570
0.1000000631791823
0.1000000548632284
0.1000000479106551
0.1000000420723476
0.1000000371481908
0.1000000329769261
0.1000000294281815
0.1000000263962004
0.1000000237948976
0.1000000215539534
0.1000000196157214
0.1000000179327743
0.1000000164659515
0.1004748761766502
0.1004076454741921
0.1003483859254370
0.1002964118897641
0.1002510583592967
0.1002116855566233
0.1001776829842431
0.1001484728532687
0.1001235128374232
0.1001022981191509
0.1000843627167755
0.1000692801039866
0.1000566631543839
0.1000461634632600
0.1000374701152762
0.1000303079794074
0.1000244356209802
0.1000196429245962
0.1000157485213107
0.1000125971090031
0.1000100567470673
0.1000080161961526
0.1000063823615956
0.1000050778862970
0.1000040389259494
0.1000032131274200
0.1000025578202765
0.1000020384222830
0.1000016270523557
0.1000013013389841
0.1000010434083885
0.1000008390344819
0.1000006769318099
0.1000005481727452
0.1000004457110810
0.1000003639955219
0.1000002986582292
0.1000002462653611
0.1000002041183273
0.1000001700961829
0.1000001425311390
0.1000001201105575
0.1000001018000055
0.1000000867829706
0.1000000744137037
0.1000000641803704
0.1000000556762719
0.1000000485773719
0.1000000426247425
0.1000000376108412
0.1000000333687740
0.1000000297638816
0.1000000266871358
0.1000000240499469
0.1000000217800716
0.1000000198183812
0.1000000181163015
0.1000000166337816
0.1005236106524423
0.1004495542878025
0.1003842284178873
0.1003268953412213
0.1002768368126154
0.1002333593621561
0.1001957990485558
0.1001635255559404
0.1001359455629171
0.1001125053356447
0.1000926925215632
0.1000760371461837
0.1000621118405704
0.1000505313505211
0.1000409513987564
0.1000330669876398
0.1000266102413532
0.1000213478926664
0.1000170785204742
0.1000136296404696
0.1000108547433606
0.1000086303638028
0.1000068532497507
0.1000054376872903
0.1000043130212139
0.1000034213975079
0.1000027157412207
0.1000021579723343
0.1000017174535176
0.1000013696570551
0.1000010950337022
0.1000008780635064
0.1000007064674509
0.1000005705588056
0.1000004627139884
0.1000003769442629
0.1000003085514691
0.1000002538530179
0.1000002099634105
0.1000001746214899
0.1000001460544015
0.1000001228708261
0.1000001039774153
0.1000000885135259
0.1000000758003277
0.1000000653011581
0.1000000565906556
0.1000000493307285
0.1000000432518397
0.1000000381384187
0.1000000338174793
0.1000000301497252
0.1000000270225871
0.1000000243447617
0.1000000220419187
0.1000000200533179
0.1000000183291364
0.1000000168283511
0.1005780417622877
0.1004964007428697
0.1004243239504094
0.1003610186479395
0.1003057098584140
0.1002576464869227
0.1002161068680151
0.1001804036257145
0.1001498877545970
0.1001239518552082
0.1001020324849568
0.1000836116150705
0.1000682172136687
0.1000554230029109
0.1000448474629958
0.1000361521762196
0.1000290396193585
0.1000232505217441
0.1000185609094078
0.1000147789528792
0.1000117417283276
0.1000093119897296
0.1000073750348208
0.1000058357310073
0.1000046157503868
0.1000036510466371
0.1000028895916081
0.1000022893766210
0.1000018166730467
0.1000014445388207
0.1000011515520396
0.1000009207494272
0.1000007387459302
0.1000005950116072
0.1000004812829531
0.1000003910874945
0.1000003193626166
0.1000002621518919
0.1000002163645098
0.1000001795856196
0.1000001499274302
0.1000001259127104
0.1000001063838928
0.1000000904323060
0.1000000773431655
0.1000000665528558
0.1000000576157738
0.1000000501785941
0.1000000439602856
0.1000000387365818
0.1000000343278966
0.1000000305899083
0.1000000274062070
0.1000000246825436
0.1000000223423192
0.1000000203230394
0.1000000185735189
0.1000000170516720
0.1006388782345223
0.1005488070647141
0.1004692149956858
0.1003992513524217
0.1003380809070097
0.1002848908903154
0.1002388974302558
0.1001993512794607
0.1001655427165441
0.1001368055319544
0.1001125200402048
0.1000921150936969
0.1000750691075279
0.1000609101377484
0.1000492150856464
0.1000396081261179
0.1000317584777436
0.1000253776449557
0.1000202162683153
0.1000160607176407
0.1000127295552053
0.1000100699835725
0.1000079543762079
0.1000062769702880
0.1000049507815879
0.1000039047822665
0.1000030813648609
0.1000024341006005
0.1000019257877143
0.1000015267758840
0.1000012135462967
0.1000009675226139
0.1000007740861931
0.1000006217686449
0.1000005015958293
0.1000004065592824
0.1000003311934691
0.1000002712398938
0.1000002233817584
0.1000001850353945
0.1000001541870149
0.1000001292653844
0.1000001090427877
0.1000000925581719
0.1000000790575920
0.1000000679481093
0.1000000587621193
0.1000000511297494
0.1000000447574895
0.1000000394116328
0.1000000349054284
0.1000000310890965
0.1000000278420538
0.1000000250668471
0.1000000226844069
0.1000000206303258
0.1000000188519302
0.1000000173059713
0.1007069174912131
0.1006074748007332
0.1005195144172937
0.1004421249619842
0.1003744074651285
0.1003154833568964
0.1002645018998750
0.1002206468980373
0.1001831425381076
0.1001512582475876
0.1001243124874546
0.1001016754351049
0.1000827705524671
0.1000670750731367
0.1000541194786373
0.1000434860654223
0.1000348067292726
0.1000277601111141
0.1000220682573644
0.1000174929487783
0.1000138318450506
0.1000109145793365
0.1000085989189135
0.1000067670871711
0.1000053223197347
0.1000041857054037
0.1000032933420372
0.1000025938195296
0.1000020460271775
0.1000016172712823
0.1000012816807012
0.1000010188729437
0.1000008128508802
0.1000006510996453
0.1000005238543788
0.1000004235115382
0.1000003441592411
0.1000002812050997
0.1000002310830553
0.1000001910236213
0.1000001588745981
0.1000001329616729
0.1000001119803413
0.1000000949122964
0.1000000809608473
0.1000000695010831
0.1000000600414326
0.1000000521940098
0.1000000456517256
0.1000000401706035
0.1000000355560970
0.1000000316524864
0.1000000283346441
0.1000000255016247
0.1000000230716638
0.1000000209782637
0.1000000191671229
0.1000000175937178
0.1007830559935857
0.1006731943337224
0.1005759141398375
0.1004902407777733
0.1004152081384558
0.1003498676987536
0.1002932970571598
0.1002446077466459
0.1002029521480029
0.1001675293562821
0.1001375898893990
0.1001124391697828
0.1000914397548904
0.1000740123378847
0.1000596355831108
0.1000478448996244
0.1000382302877131
0.1000304334164459
0.1000241441038301
0.1000190963749704
0.1000150642682930
0.1000118575466663
0.1000093174508553
0.1000073126092263
0.1000057351920563
0.1000044973731532
0.1000035281374049
0.1000027704515819
0.1000021787980058
0.1000017170569141
0.1000013567134624
0.1000010753590038
0.1000008554530426
0.1000006833114880
0.1000005482878962
0.1000004421167077
0.1000003583905699
0.1000002921472592
0.1000002395452084
0.1000001976099646
0.1000001640369492
0.1000001370385763
0.1000001152260981
0.1000000975184901
0.1000000830722975
0.1000000712276714
0.1000000614668739
0.1000000533823660
0.1000000466522501
0.1000000410213523
0.1000000362866265
0.1000000322858752
0.1000000288890119
0.1000000259912782
0.1000000235079638
0.1000000213702846
0.1000000195221546
0.1000000179176515
0.1008683005314868
0.1007468553116780
0.1006391946974941
0.1005442785550583
0.1004610704109269
0.1003885476744494
0.1003257113895120
0.1002715952820759
0.1002252738893329
0.1001858695859404
0.1001525583615509
0.1001245742498975
0.1001012123605554
0.1000818305172325
0.1000658495578534
0.1000527523986608
0.1000420820042248
0.1000334384354154
0.1000264751666276
0.1000208948713458
0.1000164448719378
0.1000129124366494
0.1000101200860604
0.1000079210451226
0.1000061949478030
0.1000048438716785
0.1000037887516176
0.1000029661964912
0.1000023257117192
0.1000018273138721
0.1000014395115296
0.1000011376188228
0.1000009023639696
0.1000007187539395
0.1000005751574306
0.1000004625708969
0.1000003740358468
0.1000003041795474
0.1000002488552615
0.1000002048619608
0.1000001697269453
0.1000001415378778
0.1000001188133829
0.1000001004035791
0.1000000854137367
0.1000000731457410
0.1000000630532210
0.1000000547071468
0.1000000477694352
0.1000000419726766
0.1000000371045375
0.1000000329957403
0.1000000295107766
0.1000000265407165
0.1000000239976242
0.1000000218102087
0.1000000199204263
0.1000000182808172
0.1009637804706905
0.1008294580187581
0.1007102356945784
0.1006050060353528
0.1005126592462691
0.1004320946731382
0.1003622318854532
0.1003020210964711
0.1002504526635821
0.1002065654412316
0.1001694537990974
0.1001382731682704
0.1001122440351909
0.1000906543637265
0.1000728604863265
0.1000582865618193
0.1000464227466121
0.1000368222648669
0.1000290975896418
0.1000229159600570
0.1000179944594580
0.1000140948675703
0.1000110184778689
0.1000086010425480
0.1000067079744800
0.1000052299013027
0.1000040786337616
0.1000031835806557
0.1000024886175156
0.1000019493961780
0.1000015310678144
0.1000012063823925
0.1000009541223200
0.1000007578263384
0.1000006047607052
0.1000004850975140
0.1000003912639320
0.1000003174306025
0.1000002591120359
0.1000002128561942
0.1000001760044769
0.1000001465068464
0.1000001227798515
0.1000001035978406
0.1000000880097346
0.1000000752754118
0.1000000648170967
0.1000000561822053
0.1000000490149235
0.1000000430344412
0.1000000380182542
0.1000000337893303
0.1000000302062209
0.1000000271554229
0.1000000245454618
0.1000000223022947
0.1000000203657256
0.1000000186866030
0.1010707609500957
0.1009221256935028
0.1007900271962657
0.1006732893783959
0.1005707265475331
0.1004811562051414
0.1004034115759940
0.1003363535440160
0.1002788816899424
0.1002299441533395
0.1001885460827330
0.1001537564911615
0.1001247133976634
0.1001006272043184
0.1000807823291998
0.1000645371833743
0.1000513226405341
0.1000406391971616
0.1000320530565230
0.1000251913897176
0.1000197370312942
0.1000154228567530
0.1000120260668462
0.1000093625720398
0.1000072816332761
0.1000056608757360
0.1000044017537439
0.1000034255097790
0.1000026696404788
0.1000020848584937
0.1000016325213017
0.1000012824862866
0.1000010113447790
0.1000008009853955
0.1000006374378542
0.1000005099515138
0.1000004102673146
0.1000003320468970
0.1000002704279239
0.1000002216796646
0.1000001829374994
0.1000001519990534
0.1000001271681299
0.1000001071355083
0.1000000908880393
0.1000000776393800
0.1000000667772315
0.1000000578231340
0.1000000504018052
0.1000000442177256
0.1000000390372284
0.1000000346747699
0.1000000309823793
0.1000000278415303
0.1000000251568595
0.1000000228512965
0.1000000208622763
0.1000000191387828
0.1011906569926944
0.1010261177758108
0.1008796820465592
0.1007501045044283
0.1006361214960370
0.1005364652289832
0.1004498778596070
0.1003751250907994
0.1003110089222345
0.1002563792189419
0.1002101438048016
0.1001712768438626
0.1001388253415559
0.1001119136758911
0.1000897461506784
0.1000716076433059
0.1000568624932393
0.1000449518393706
0.1000353896608633
0.1000277578048740
0.1000217002947950
0.1000169172053821
0.1000131583687098
0.1000102171407669
0.1000079244167321
0.1000061430377039
0.1000047626867082
0.1000036953302947
0.1000028712261789
0.1000022354884795
0.1000017451805328
0.1000013668907313
0.1000010747385018
0.1000008487542992
0.1000006735781180
0.1000005374243491
0.1000004312657990
0.1000003481955012
0.1000002829309762
0.1000002314313775
0.1000001906032551
0.1000001580753189
0.1000001320265545
0.1000001110553560
0.1000000940800420
0.1000000802632923
0.1000000689547663
0.1000000596475122
0.1000000519448218
0.1000000455349933
0.1000000401720811
0.1000000356611785
0.1000000318471392
0.1000000286059082
0.1000000258378396
0.1000000234625275
0.1000000214147944
0.1000000196415661
0.1013250484586629
0.1011428440325539
0.1009804490829509
0.1008365493335195
0.1007098017712958
0.1005988503286776
0.1005023416341772
0.1004189404182605
0.1003473441584731
0.1002862965659632
0.1002345995539321
0.1001911233864172
0.1001548147804329
0.1001247028216165
0.1000999026476463
0.1000796169485004
0.1000631354215831
0.1000498323967988
0.1000391629068218
0.1000306575177214
0.1000239162533407
0.1000186019439592
0.1000144333082107
0.1000111780408140
0.1000086461321005
0.1000066835935697
0.1000051667114099
0.1000039969010019
0.1000030961927187
0.1000024033445684
0.1000018705510292
0.1000014606995429
0.1000011451156460
0.1000009017333475
0.1000007136276582
0.1000005678497473
0.1000004545108017
0.1000003660673025
0.1000002967673330
0.1000002422241945
0.1000001990896938
0.1000001648048124
0.1000001374100320
0.1000001154013755
0.1000000976213164
0.1000000831761781
0.1000000713736026
0.1000000616751913
0.1000000536606011
0.1000000470002866
0.1000000414347649
0.1000000367588078
0.1000000328093572
0.1000000294562614
0.1000000265951497
0.1000000241419341
0.1000000220285514
0.1000000201996531
0.1014756957251694
0.1012738794721207
0.1010937271819922
0.1009338568778947
0.1007928456270995
0.1006692467328888
0.1005616072411416
0.1004684852961424
0.1003884668669432
0.1003201813753411
0.1002623157904903
0.1002136268129116
0.1001729508497761
0.1001392115794594
0.1001114250104206
0.1000887020501856
0.1000702487067992
0.1000553641400097
0.1000434368562242
0.1000339393952132
0.1000264218852468
0.1000205048468046
0.1000158716055472
0.1000122606370471
0.1000094581142703
0.1000072908698765
0.1000056199247417
0.1000043346765422
0.1000033477914304
0.1000025908000470
0.1000020103673075
0.1000015651834095
0.1000012234103441
0.1000009606123648
0.1000007580986841
0.1000006016104543
0.1000004802903672
0.1000003858807621
0.1000003121040581
0.1000002541869890
0.1000002084971253
0.1000001722663311
0.1000001433810373
0.1000001202235624
0.1000001015522421
0.1000000864109489
0.1000000740608059
0.1000000639286239
0.1000000555679277
0.1000000486294502
0.1000000428387511
0.1000000379791981
0.1000000338789920
0.1000000304012435
0.1000000274363590
0.1000000248961789
0.1000000227094473
0.1000000208182977
0.1016445559247178
0.1014209799097320
0.1012210800261881
0.1010434091042513
0.1008864647648546
0.1007487081383952
0.1006285832025203
0.1005245362207717
0.1004350347365787
0.1003585855755632
0.1002937513358049
0.1002391649010550
0.1001935415940024
0.1001556886912698
0.1001245121423298
0.1000990204627112
0.1000783258984953
0.1000616430749336
0.1000482854387964
0.1000376598754380
0.1000292599237864
0.1000226580247069
0.1000174972225013
0.1000134827001611
0.1000103734725662
0.1000079744950879
0.1000061293748821
0.1000047138045673
0.1000036297775968
0.1000028005944574
0.1000021666302347
0.1000016818070684
0.1000013106985217
0.1000010261852029
0.1000008075801080
0.1000006391461082
0.1000005089350205
0.1000004078862946
0.1000003291324422
0.1000002674671566
0.1000002189401446
0.1000001805497873
0.1000001500107725
0.1000001255788275
0.1000001059187284
0.1000000900049780
0.1000000770470729
0.1000000664332442
0.1000000576880545
0.1000000504403895
0.1000000443992440
0.1000000393353589
0.1000000350672562
0.1000000314505856
0.1000000283699691
0.1000000257327363
0.1000000234640926
0.1000000215033798
0.1018337995115171
0.1015860979873516
0.1013642514293999
0.1011667514349748
0.1009920179025823
0.1008384192629967
0.1007042936995982
0.1005879707876709
0.1004877929374315
0.1004021360091183
0.1003294284844105
0.1002681686284204
0.1002169391594558
0.1001744190556877
0.1001393922619339
0.1001107532067693
0.1000875091893323
0.1000687798353181
0.1000537939423245
0.1000418841275354
0.1000324797501886
0.1000250986053782
0.1000193378760301
0.1000148647910002
0.1000114073761550
0.1000087456101592
0.1000067032158229
0.1000051402386718
0.1000039464927496
0.1000030358934744
0.1000023416505791
0.1000018122610105
0.1000014082210255
0.1000010993666675
0.1000008627499873
0.1000006809624301
0.1000005408245983
0.1000004323713801
0.1000003480718546
0.1000002822335410
0.1000002305498712
0.1000001897579385
0.1000001573805147
0.1000001315320554
0.1000001107730529
0.1000000940007696
0.1000000803672723
0.1000000692179066
0.1000000600450621
0.1000000524533665
0.1000000461334281
0.1000000408419752
0.1000000363867903
0.1000000326152445
0.1000000294055404
0.1000000266600007
0.1000000242999023
0.1000000222614861
0.1020458268532271
0.1017713993839822
0.1015251809946734
0.1013056076991924
0.1011110248856792
0.1009397090066158
0.1007898907015855
0.1006597787329378
0.1005475840480475
0.1004515432462506
0.1003699407295340
0.1003011288568833
0.1002435455030356
0.1001957285398749
0.1001563269059294
0.1001241080962948
0.1000979620794503
0.1000769018154522
0.1000600606989390
0.1000466873693157
0.1000361384116638
0.1000278695117283
0.1000214256274562
0.1000164307026593
0.1000125773831748
0.1000096171119080
0.1000073508863212
0.1000056208694020
0.1000043029602817
0.1000033003585586
0.1000025380997237
0.1000019584984305
0.1000015174105974
0.1000011812122673
0.1000009243900426
0.1000007276419510
0.1000005763962201
0.1000004596665261
0.1000003691742356
0.1000002986798441
0.1000002434765590
0.1000002000084002
0.1000001655831820
0.1000001381573340
0.1000001161748339
0.1000000984467364
0.1000000840610684
0.1000000723153928
0.1000000626662739
0.1000000546913422
0.1000000480607512
0.1000000425156448
0.1000000378518632
0.1000000339075720
0.1000000305538363
0.1000000276874105
0.1000000252252023
0.1000000231000030
0.1022832844637258
0.1019792788740616
0.1017060198048316
0.1014618952762523
0.1012451811230095