# vtk DataFile Version 3.0
Cubed Sphere AHF mesh. Centered at (0,0,0) with radius 1.0. Scaling is (26,31,43).
ASCII
DATASET UNSTRUCTURED_GRID
POINTS 23712 double
-0.5773502691896258 -0.5773502691896258 -0.5773502691896258
-0.5613165850550146 -0.5852023971850152 -0.5852023971850152
-0.5446249867142603 -0.5930360966444167 -0.5930360966444167
-0.5272601898240253 -0.6008313791017963 -0.6008313791017963
-0.5092087361218123 -0.6085665382919220 -0.6085665382919220
-0.4904593476110152 -0.6162181546907627 -0.6162181546907627
-0.4710033009912397 -0.6237611283397498 -0.6237611283397498
-0.4508348173337161 -0.6311687442672026 -0.6311687442672026
-0.4299514604699123 -0.6384127746371424 -0.6384127746371424
-0.4083545359543967 -0.6454636213472721 -0.6454636213472721
-0.3860494808515880 -0.6522905021285452 -0.6522905021285452
-0.3630462330718730 -0.6588616822415473 -0.6588616822415473
-0.3393595676564034 -0.6651447526065507 -0.6651447526065507
-0.3150093864072420 -0.6711069536502110 -0.6711069536502110
-0.2900209467136991 -0.6767155423319645 -0.6767155423319645
-0.2644250154674447 -0.6819381977844625 -0.6819381977844625
-0.2382579347035984 -0.6867434588515481 -0.6867434588515481
-0.2115615871375951 -0.6911011846494772 -0.6911011846494772
-0.1843832521278940 -0.6949830272512925 -0.6949830272512925
-0.1567753457633047 -0.6983629038547209 -0.6983629038547209
-0.1287950426629079 -0.7012174544980536 -0.7012174544980536
-0.1005037815259213 -0.7035264706814485 -0.7035264706814485
-0.0719666612499762 -0.7052732802497664 -0.7052732802497664
-0.0432517392654995 -0.7064450746698250 -0.7064450746698250
-0.0144292482939818 -0.7070331664051095 -0.7070331664051095
0.0144292482939818 -0.7070331664051095 -0.7070331664051095
0.0432517392654994 -0.7064450746698250 -0.7064450746698250
0.0719666612499761 -0.7052732802497664 -0.7052732802497664
0.1005037815259212 -0.7035264706814485 -0.7035264706814485
0.1287950426629078 -0.7012174544980536 -0.7012174544980536
0.1567753457633046 -0.6983629038547209 -0.6983629038547209
0.1843832521278938 -0.6949830272512925 -0.6949830272512925
0.2115615871375950 -0.6911011846494773 -0.6911011846494773
0.2382579347035983 -0.6867434588515481 -0.6867434588515481
0.2644250154674447 -0.6819381977844626 -0.6819381977844626
0.2900209467136989 -0.6767155423319645 -0.6767155423319645
0.3150093864072418 -0.6711069536502110 -0.6711069536502110
0.3393595676564033 -0.6651447526065507 -0.6651447526065507
0.3630462330718729 -0.6588616822415473 -0.6588616822415473
0.3860494808515879 -0.6522905021285452 -0.6522905021285452
0.4083545359543965 -0.6454636213472721 -0.6454636213472721
0.4299514604699121 -0.6384127746371424 -0.6384127746371424
0.4508348173337161 -0.6311687442672026 -0.6311687442672026
0.4710033009912397 -0.6237611283397498 -0.6237611283397498
0.4904593476110151 -0.6162181546907627 -0.6162181546907627
0.5092087361218122 -0.6085665382919220 -0.6085665382919220
0.5272601898240252 -0.6008313791017963 -0.6008313791017963
0.5446249867142602 -0.5930360966444167 -0.5930360966444167
0.5613165850550146 -0.5852023971850152 -0.5852023971850152
0.5773502691896256 -0.5773502691896258 -0.5773502691896258
-0.5838723020879064 -0.5640800206611977 -0.5838723020879064
-0.5678341787240655 -0.5719296289853282 -0.5919973352655151
-0.5511222691650520 -0.5797681724210887 -0.6001109153130567
-0.5337198348393435 -0.5875756794269951 -0.6081923699332055
-0.5156119523590563 -0.5953303774034081 -0.6162191625754575
-0.4967858896245995 -0.6030086874061306 -0.6241668869642404
-0.4772315059626615 -0.6105852478945091 -0.6320092916802814
-0.4569416712526823 -0.6180329723044754 -0.6397183397537552
-0.4359126972885392 -0.6253231451088288 -0.6472643080951035
-0.4141447728035316 -0.6324255606562403 -0.6546159312055821
-0.3916423917338520 -0.6393087084235234 -0.6617405929296118
-0.3684147625094284 -0.6459400073376229 -0.6686045689985921
-0.3444761845660501 -0.6522860905037139 -0.6751733217494582
-0.3198463770134053 -0.6583131400135894 -0.6814118466807330
-0.2945507436264054 -0.6639872695307104 -0.6872850684616125
-0.2686205582087075 -0.6692749501132202 -0.6927582816961403
-0.2420930550497303 -0.6741434723368861 -0.6977976292609873
-0.2150114107694185 -0.6785614353434869 -0.7023706085134338
-0.1874246063772699 -0.6824992511234872 -0.7064465932681709
-0.1593871618542707 -0.6859296503219999 -0.7099973573508420
-0.1309587399078435 -0.6888281743175270 -0.7129975839427034
-0.1022036205732184 -0.6911736374358329 -0.7154253440125289
-0.0731900537790640 -0.6929485430675443 -0.7172625270348266
-0.0439895025313110 -0.6941394382483138 -0.7184952080114125
-0.0146757946239109 -0.6947371929590375 -0.7191139365716354
0.0146757946239109 -0.6947371929590375 -0.7191139365716354
0.0439895025313109 -0.6941394382483138 -0.7184952080114125
0.0731900537790639 -0.6929485430675443 -0.7172625270348266
0.1022036205732184 -0.6911736374358329 -0.7154253440125289
0.1309587399078435 -0.6888281743175270 -0.7129975839427034
0.1593871618542705 -0.6859296503219999 -0.7099973573508420
0.1874246063772697 -0.6824992511234872 -0.7064465932681709
0.2150114107694185 -0.6785614353434869 -0.7023706085134338
0.2420930550497303 -0.6741434723368861 -0.6977976292609873
0.2686205582087074 -0.6692749501132202 -0.6927582816961403
0.2945507436264052 -0.6639872695307104 -0.6872850684616125
0.3198463770134052 -0.6583131400135895 -0.6814118466807331
0.3444761845660501 -0.6522860905037139 -0.6751733217494582
0.3684147625094283 -0.6459400073376229 -0.6686045689985921
0.3916423917338518 -0.6393087084235235 -0.6617405929296120
0.4141447728035314 -0.6324255606562403 -0.6546159312055821
0.4359126972885391 -0.6253231451088289 -0.6472643080951036
0.4569416712526823 -0.6180329723044755 -0.6397183397537554
0.4772315059626615 -0.6105852478945091 -0.6320092916802814
0.4967858896245994 -0.6030086874061306 -0.6241668869642405
0.5156119523590561 -0.5953303774034081 -0.6162191625754575
0.5337198348393435 -0.5875756794269952 -0.6081923699332055
0.5511222691650520 -0.5797681724210887 -0.6001109153130567
0.5678341787240655 -0.5719296289853282 -0.5919973352655151
0.5838723020879063 -0.5640800206611978 -0.5838723020879064
-0.5903838743180332 -0.5503578489405394 -0.5903838743180332
-0.5743474279678219 -0.5581919647938262 -0.5987877440515591
-0.5576213920693145 -0.5660224676560460 -0.6071877380310312
-0.5401875099185963 -0.5738294596888518 -0.6155625113025864
-0.5220293204273370 -0.5815911610383104 -0.6238887000229149
-0.5031325565286906 -0.5892838938917085 -0.6321409043565600
-0.4834855717804804 -0.5968820961742533 -0.6402917031687444
-0.4630797901314843 -0.6043583701715981 -0.6483117061840780
-0.4419101719206410 -0.6116835713025820 -0.6561696492154970
-0.4199756871312931 -0.6188269419457818 -0.6638325377236568
-0.3972797848035009 -0.6257562945911367 -0.6712658432886740
-0.3738308454271567 -0.6324382475996153 -0.6784337565159511
-0.3496426012366532 -0.6388385154798510 -0.6852994984238402
-0.3247345077692751 -0.6449222538232838 -0.6918256904649772
-0.2991320490166838 -0.6506544569006962 -0.6979747810389287
-0.2728669581786454 -0.6560004034714085 -0.7037095237238746
-0.2459773365942816 -0.6609261436905172 -0.7089934995952821
-0.2185076550182481 -0.6653990172589589 -0.7137916730596106
-0.1905086241101852 -0.6693881903219672 -0.7180709677999284
-0.1620369248199177 -0.6728651962860988 -0.7218008469250878
-0.1331547941871492 -0.6758044639065290 -0.7249538794633675
-0.1039294677375736 -0.6781838148977257 -0.7275062741630149
-0.0744324858507822 -0.6799849131113828 -0.7294383613376653
-0.0447388778170403 -0.6811936481182118 -0.7307350043449908
-0.0149262433520561 -0.6818004378608683 -0.7313859242507497
0.0149262433520561 -0.6818004378608683 -0.7313859242507497
0.0447388778170401 -0.6811936481182118 -0.7307350043449908
0.0744324858507821 -0.6799849131113828 -0.7294383613376653
0.1039294677375735 -0.6781838148977257 -0.7275062741630149
0.1331547941871491 -0.6758044639065290 -0.7249538794633675
0.1620369248199175 -0.6728651962860988 -0.7218008469250878
0.1905086241101850 -0.6693881903219673 -0.7180709677999285
0.2185076550182480 -0.6653990172589589 -0.7137916730596106
0.2459773365942815 -0.6609261436905172 -0.7089934995952821
0.2728669581786453 -0.6560004034714085 -0.7037095237238746
0.2991320490166836 -0.6506544569006962 -0.6979747810389287
0.3247345077692749 -0.6449222538232838 -0.6918256904649772
0.3496426012366531 -0.6388385154798510 -0.6852994984238402
0.3738308454271567 -0.6324382475996153 -0.6784337565159511
0.3972797848035008 -0.6257562945911367 -0.6712658432886740
0.4199756871312930 -0.6188269419457818 -0.6638325377236568
0.4419101719206409 -0.6116835713025821 -0.6561696492154971
0.4630797901314842 -0.6043583701715981 -0.6483117061840780
0.4834855717804804 -0.5968820961742533 -0.6402917031687444
0.5031325565286905 -0.5892838938917085 -0.6321409043565600
0.5220293204273369 -0.5815911610383105 -0.6238887000229150
0.5401875099185962 -0.5738294596888518 -0.6155625113025864
0.5576213920693144 -0.5660224676560460 -0.6071877380310312
0.5743474279678219 -0.5581919647938262 -0.5987877440515591
0.5903838743180331 -0.5503578489405394 -0.5903838743180332
-0.5968737851700232 -0.5361747561696819 -0.5968737851700232
-0.5808451614035763 -0.5439794028723721 -0.6055619767824519
-0.5641112604468457 -0.5517879259436754 -0.6142544835976764
-0.5466522461661624 -0.5595805610143965 -0.6229293037707432
-0.5284500492034573 -0.5673355840352949 -0.6315622539260830
-0.5094887879313879 -0.5750292839017012 -0.6401269386830258
-0.4897552221541930 -0.5826359651554922 -0.6485947536636610
-0.4692392345954431 -0.5901279865590149 -0.6569349284336203
-0.4479343331205462 -0.5974758413528806 -0.6651146158456595
-0.4258381643480840 -0.6046482847523096 -0.6730990339695521
-0.4029530268936328 -0.6116125136427613 -0.6808516661306210
-0.3792863700818758 -0.6183344024498627 -0.6883345234819226
-0.3548512617126053 -0.6247787977407703 -0.6955084729567065
-0.3296668065612146 -0.6309098722472175 -0.7023336313695440
-0.3037584959460548 -0.6366915367004877 -0.7087698238741278
[...]
POINT_DATA 23712
SCALARS scalars double 1
LOOKUP_TABLE default
0.1151594116951443
0.1042183426262603
0.0937739600149208
0.0838711155033948
0.0745480850881496
0.0658356006893563
0.0577560714204016
0.0503230426247944
0.0435409313574855
0.0374050635948184
0.0319020217766582
0.0270102925188591
0.0227011850944100
0.0189399734217425
0.0156871996868965
0.0129000679788788
0.0105338525444894
0.0085432478807812
0.0068835965046124
0.0055119437515191
0.0043878856719368
0.0034741940208636
0.0027372194950388
0.0021470890760996
0.0016777244187441
0.0013067151264028
0.0010150835328029
0.0007869767960649
0.0006093185704333
0.0004714472363132
0.0003647615912624
0.0002823888253661
0.0002188840964725
0.0001699664253765
0.0001322920851349
0.0001032641431945
0.0000808752094218
0.0000635795753678
0.0000501906153990
0.0000397993871781
0.0000317106734699
0.0000253931380543
0.0000204407459775
0.0000165430699036
0.0000134625387901
0.0000110170669067
0.0000090668253330
0.0000075041860442
0.0000062460857105
0.0000052282292024
0.1140786690388089
0.1032316006734648
0.0928691664341834
0.0830375134072789
0.0737763517004539
0.0651179229292254
0.0570861538643932
0.0496960476586655
0.0429533560565996
0.0368545625276993
0.0313871890097908
0.0265304191249611
0.0222560100321834
0.0185294455239466
0.0153112666399750
0.0125585048091148
0.0102261376630994
0.0082684897549626
0.0066405091441125
0.0052988650167059
0.0042028293663478
0.0033149250719036
0.0026013412685402
0.0020321328286078
0.0015812327356237
0.0012263135263660
0.0009485368516075
0.0007322291752968
0.0005645176581341
0.0004349544547851
0.0003351510429730
0.0002584376613433
0.0001995570733654
0.0001543970486674
0.0001197622875833
0.0000931839675037
0.0000727635133732
0.0000570463918134
0.0000449214934370
0.0000355418148535
0.0000282625278105
0.0000225930123262
0.0000181599528699
0.0000146791001555
0.0000119337568101
0.0000097584398559
0.0000080265038247
0.0000066407788636
0.0000055264950882
0.0000046259356129
0.1127518588800180
0.1020205945343309
0.0917615094324173
0.0820218297677896
0.0728425055237471
0.0642571204295757
0.0562909812430311
0.0489604429802875
0.0422725182011494
0.0362248050487811
0.0308057510305939
0.0259952487226202
0.0217655374589262
0.0180823638012576
0.0149063354720062
0.0121943905729006
0.0099012978572454
0.0079811053084744
0.0063884630612150
0.0050797615828784
0.0040140450447849
0.0031536805432187
0.0024647838339410
0.0019174194142313
0.0014856056541847
0.0011471635513516
0.0008834506310413
0.0006790202268008
0.0005212419299635
0.0003999126159742
0.0003068802916493
0.0002356959986986
0.0001813028046569
0.0001397658719271
0.0001080438305433
0.0000837991220191
0.0000652434528919
0.0000510137726936
0.0000400740455534
0.0000316383170944
0.0000251110278180
0.0000200410719338
0.0000160866658423
0.0000129886235102
0.0000105501102692
0.0000086213516013
0.0000070881089169
0.0000058630056224
0.0000048790021169
0.0000040844867633
0.1111739503933742
0.1005803226131355
0.0904461595616582
0.0808195297156526
0.0717424053840138
0.0632495197405494
0.0553673961590610
0.0481136104477001
0.0414963386854277
0.0355142301413977
0.0301566267101369
0.0254041286115342
0.0212294826218003
0.0175987461394166
0.0144726604691623
0.0118081521835805
0.0095598740996677
0.0076816982139700
0.0061280817223089
0.0048552427822768
0.0038221028457625
0.0029909745625705
0.0023279957311974
0.0018033282129569
0.0013911544960494
0.0010695129306643
0.0008200156426944
0.0006274915469849
0.0004795919244022
0.0003663890526232
0.0002799906506261
0.0002141854219718
0.0001641284470388
0.0001260699408983
0.0000971270533260
0.0000750958412947
0.0000582990822325
0.0000454649654882
0.0000356316521280
0.0000280730155137
0.0000222413991688
0.0000177238332241
0.0000142087564408
0.0000114608502580
0.0000093020810848
0.0000075974596504
0.0000062443638656
0.0000051645418123
0.0000042981238281
0.0000035991372289
0.1093424282166081
0.0989080602537686
0.0889203343903041
0.0794279067065273
0.0704735330213567
0.0620928796132702
0.0543134981824385
0.0471540293196670
0.0406236915811204
0.0347221003618537
0.0294394425113372
0.0247570101889275
0.0206480726982258
0.0170790404241725
0.0140108532648388
0.0114005097237287
0.0092026441783110
0.0073710599010890
0.0058601341393279
0.0046260277107498
0.0036276528915960
0.0028273769967541
0.0021914620088622
0.0016902603247844
0.0012982013467699
0.0009936124111457
0.0007584205295183
0.0005777794869358
0.0004396613359082
0.0003344437338919
0.0002545162690090
0.0001939209872690
0.0001480354901484
0.0001133015724080
0.0000869984832182
0.0000670573849347
0.0000519122083558
0.0000403815790294
0.0000315765477754
0.0000248292737354
0.0000196384064198
0.0000156275725472
0.0000125140161229
0.0000100850223269
0.0000081802575146
0.0000066785747507
0.0000054881716701
0.0000045392545846
0.0000037785706994
0.0000031653300437
0.1072576440264734
0.0970036937737947
0.0871836117328772
0.0778463723049920
0.0690352574759858
0.0607866287592052
0.0531288544768058
0.0460814599300287
0.0396545616620729
0.0338486345502728
0.0286546421505055
0.0240545376438845
0.0200221168114586
0.0165241782684184
0.0135219226771520
0.0109725047207164
0.0088306416019591
0.0070501810988404
0.0055855408350890
0.0043929471602414
0.0034314244813120
0.0026635109499405
0.0020557008374413
0.0015786348935514
0.0012070754990700
0.0009197125737568
0.0006988491274202
0.0005300130201250
0.0004015354078735
0.0003041281249307
0.0002304833805468
0.0001749107783759
0.0001330195423803
0.0001014483021956
0.0000776408898420
0.0000596641554481
0.0000460625406295
0.0000357437430643
0.0000278899765006
0.0000218898397081
0.0000172864782386
0.0000137384330107
0.0000109902449529
0.0000088504853837
0.0000071753916424
0.0000058567059036
0.0000048126497056
0.0000039812289133
0.0000033152660283
0.0000027787107130
0.1049231482533028
0.0948700383820657
0.0852382300270772
0.0760767358533733
0.0674290915542105
0.0593320973552607
0.0518147053481214
0.0448971230342753
0.0385901980045847
0.0328951367623517
0.0278035924575461
0.0232981327449309
0.0193530720234021
0.0159356246463010
0.0130073104668087
0.0105255244590335
0.0084451707643834
0.0067202599521769
0.0053053767710604
0.0041569429474983
0.0032342231305688
0.0025000485501650
0.0019212588202262
0.0014688844896640
0.0011181092590115
0.0008480602564282
0.0006414775777749
0.0004843115328257
0.0003652893354249
0.0002754841079440
0.0002079096391775
0.0001571555563660
0.0001190702053763
0.0000904929101597
0.0000690334029722
0.0000528938653664
0.0000407278768330
0.0000315302931190
0.0000245523633259
0.0000192369977480
0.0000151698374493
0.0000120425326412
0.0000096253394735
0.0000077467587639
0.0000062784539812
0.0000051241022201
0.0000042111612031
0.0000034847907865
0.0000029033626077
0.0000024351388445
0.1023459880605138
0.0925131268183679
0.0830893635201198
0.0741234625963455
0.0656589299119297
0.0577327328285012
0.0503741562493777
0.0436038673428206
0.0374332571196722
0.0318641157673036
0.0268886806058173
0.0224900716485313
0.0186431019173140
0.0153154206600586
0.0124689207836673
0.0100613205719668
0.0080478170183498
0.0063827057103857
0.0050208705224383
0.0039190641560863
0.0030369251574531
0.0023377048595426
0.0017887049348445
0.0013614495500281
0.0010316331524135
0.0007788946398676
0.0005864712930089
0.0004407825959064
0.0003309867282578
0.0002485430044132
0.0001868035703610
0.0001406485224135
0.0001061710492311
0.0000804135292595
0.0000611516959711
0.0000467217531587
0.0000358843234910
0.0000277189779836
0.0000215434995468
0.0000168527276266
0.0000132726335392
0.0000105260719941
0.0000084073781963
0.0000067636020371
0.0000054806843094
0.0000044732909849
0.0000036773431467
0.0000030445271462
0.0000025382565368
0.0000021306973079
0.0995369567647679
0.0899424544894764
0.0807453587845053
0.0719938976502589
0.0637312571085990
0.0559942893027646
0.0488123466880837
0.0422063167585702
0.0361879281867176
0.0307593886925824
0.0259133972457739
0.0216335491460901
0.0178951239931691
0.0146662163846011
0.0119091408845391
0.0095820200484295
0.0076404502663838
0.0060391369866967
0.0047333990186329
0.0036804598606481
0.0028404695730776
0.0021772298041583
0.0016586230940157
0.0012567719204022
0.0009479706060901
0.0007124430806014
0.0005339818563228
0.0003995197884115
0.0002986781899497
0.0002233247405338
0.0001671641672036
0.0001253752120225
0.0000942996983494
0.0000711838421156
0.0000539682350239
0.0000411208458516
0.0000315065473245
0.0000242866862665
0.0000188427381966
0.0000147188676758
0.0000115790750997
0.0000091754391996
0.0000073247031662
0.0000058910770667
0.0000047736379286
0.0000038971113782
0.0000032051302287
0.0000026553023628
0.0000022155980544
0.0000018616988835
0.0965107795617387
0.0871711664112315
0.0782179184954382
0.0696984425297623
0.0616553132562955
0.0541249793453040
0.0471365857570296
0.0407109881576151
0.0348600323501662
0.0295861618760494
0.0248823996540554
0.0207327254447617
0.0171128418728346
0.0139912905972840
0.0113308506429108
0.0090901267899338
0.0072252207199545
0.0056913736637665
0.0044444772593665
0.0034423679998220
0.0026458471298728
0.0020193981038722
0.0015316033850002
0.0011552876016966
0.0008674322204196
0.0006489168046323
0.0004841439550921
0.0003606006536121
0.0002684000746138
0.0001998371985026
0.0001489806587527
0.0001113135362172
0.0000834280349795
0.0000627733666649
0.0000474525921165
0.0000360622645414
0.0000275680533768
0.0000212096876470
0.0000164291958111
0.0000128172786334
0.0000100735595836
0.0000079773104399
0.0000063659961260
0.0000051196045207
0.0000041492266380
0.0000033887434033
0.0000027887745999
0.0000023122711084
0.0000019312993484
0.0000016246904102
0.0932862209088313
0.0842161715664946
0.0755222185387624
0.0672506709453917
0.0594432047858881
0.0521355764787802
0.0453564437988355
0.0391263703349974
0.0334570878429814
0.0283510818271433
0.0238015489026851
0.0197927505289111
0.0163007583223479
0.0132945542637843
0.0107374184787206
0.0085885119923050
0.0068045456376919
0.0053414216855517
0.0041557425784093
0.0032061002133567
0.0024540865108812
0.0018649972906757
0.0014082321327662
0.0010574188655597
0.0007903097943791
0.0005885066038686
0.0004370724639979
0.0003240848758891
0.0002401734835777
0.0001780757946494
0.0001322324744816
0.0000984339813665
0.0000735225237721
0.0000551478291153
0.0000415718172836
0.0000315155672450
0.0000240414842134
0.0000184638837570
0.0000142819562171
0.0000111300048073
0.0000087407977661
0.0000069187439399
0.0000055203479295
0.0000044400139258
0.0000035997538479
0.0000029417316825
0.0000024228612429
0.0000020108875750
0.0000016815393603
0.0000014164544937
0.0898861003240937
0.0810981714914112
0.0726769455265202
0.0646673714174715
0.0571099485306833
0.0500394574759095
0.0434837901689263
0.0374629551217428
0.0319883330402720
0.0270622495148015
0.0226779153612998
0.0188197614590091
0.0154641654140713
0.0125805349707879
0.0101326816553602
0.0080803919375237
0.0063810861473625
0.0049914502455629
0.0038689332653962
0.0029730226621216
0.0022662378096140
0.0017148140343916
0.0012890810288242
0.0009635659726369
0.0007168703085346
0.0005313787035151
0.0003928598067078
0.0002900127706993
0.0002140035632956
0.0001580233211750
0.0001168894237962
0.0000866999742584
0.0000645446563780
0.0000482696190521
0.0000362908631964
0.0000274491218915
0.0000208989335911
0.0000160250630855
0.0000123802718558
0.0000096394291322
0.0000075659303987
0.0000059872657132
0.0000047773200298
0.0000038435865249
0.0000031179434078
0.0000025500039156
0.0000021023189093
0.0000017469110652
0.0000014627656638
0.0000012340088841
0.0863372057595758
0.0778415920934246
0.0697042437771519
0.0619685060247801
0.0546734389051810
0.0478525748518780
0.0415327683000169
0.0357332127802719
0.0304647005314586
0.0257291920883839
0.0215197476534278
0.0178208487042415
0.0146091088297178
0.0118543401164766
0.0095209094536515
0.0075692922843084
0.0059577136980070
0.0046437612600386
0.0035858616715395
0.0027445331039281
0.0020833536472729
0.0015696191408476
0.0011746956705475
0.0008740987944089
0.0006473501117305
0.0004776709890822
0.0003515737320528
0.0002584041788205
0.0001898791603343
0.0001396500812500
0.0001029121024003
0.0000760684129678
0.0000564515103003
0.0000420983180454
0.0000315730527974
0.0000238305008022
0.0000181122672081
0.0000138691539800
0.0000107037581170
0.0000083284188179
0.0000065346347581
0.0000051709455371
0.0000041269970905
0.0000033220903997
0.0000026969618920
0.0000022078839279
0.0000018224266613
0.0000015164080643
0.0000012716935626
0.0000010746036773
0.0826700970908502
0.0744744108956320
0.0666295637976176
0.0591770773643750
0.0521543304879278
0.0455933522767498
0.0395197013619590
0.0339515056716593
0.0288987369955979
0.0243627876589592
0.0203364015480197
0.0168039888167990
0.0137423243786293
0.0111215976128862
0.0089067485516667
0.0070589986467463
0.0055374662765486
0.0043007514962838
0.0033083823086341
0.0025220347932953
0.0019064684922516
0.0014301517409168
0.0010655839567767
0.0007893487003107
0.0005819495888448
0.0004274897935217
0.0003132556402591
0.0002292578491113
0.0001677728796684
0.0001229143374471
0.0000902525287652
0.0000664903572216
0.0000491964112043
0.0000365912897196
0.0000273805786009
0.0000206268868766
0.0000156534426689
0.0000119724697459
0.0000092325763265
0.0000071804585682
0.0000056332190989
0.0000044584619317
0.0000035600300360
0.0000028678075398
0.0000023304342621
0.0000019100993743
0.0000015788161675
0.0000013157509831
0.0000011053026051
0.0000009357165342
0.0789187965321095
0.0710278760109288
0.0634814082207407
0.0563188994941872
0.0495758317707438
0.0432824988274252
0.0374629247449631
0.0321339368580799
0.0273044660738989
0.0229751409248022
0.0191382271809429
0.0157779424376801
0.0128711462679212
0.0103883741092310
0.0082951509999595
0.0065534941302659
0.0051234952371964
0.0039648682905455
0.0030383558824765
0.0023069080911796
0.0017365769699703
0.0012971033360562
0.0009622048745878
0.0007096011186905
0.0005208286051212
0.0003809074452717
0.0002779195853584
0.0002025513805660
0.0001476415786574
0.0001077630812242
0.0000788550041594
0.0000579118647736
0.0000427296830108
0.0000317043162254
0.0000236750206247
0.0000178054809833
0.0000134948206713
0.0000103119400590
0.0000079476013970
0.0000061797687639
0.0000048487034215
0.0000038391552654
0.0000030676691458
0.0000024735527735
0.0000020124530091
0.0000016517843017
0.0000013674700003
0.0000011416138265
0.0000009608307639
0.0000008150461438
0.0751203677348369
0.0675361179868282
0.0602909758297619
0.0534222731064796
0.0469634100730333
0.0409427419640139
0.0353825452647349
0.0302981336634336
0.0256971944734304
0.0215794101430689
0.0179364154010593
0.0147521187141136
0.0120033884544975
0.0096610722580552
0.0076912864332369
0.0060568855064572
0.0047190043892896
0.0036385603984494
0.0027776106491463
0.0021004809843266
0.0015746121579167
0.0011711024910431
0.0008649582777844
0.0006350892054027
0.0004641030226039
0.0003379607642612
0.0002455520604639
0.0001782417744414
0.0001294273113803
0.0000941331170249
0.0000686571792825
0.0000502749532298
0.0000369994657130
0.0000273922636463
0.0000204178688639
0.0000153338998497
0.0000116094596924
0.0000088653233960
0.0000068305707122
0.0000053114065428
0.0000041688854371
0.0000033030685061
0.0000026417871096
0.0000021326847107
0.0000017375810480
0.0000014284768974
0.0000011847162692
0.0000009909651096
0.0000008357665693
0.0000007105041846
0.0713143906531965
0.0640356609314213
0.0570917094583500
0.0505175701671331
0.0443444123851232
0.0385984836124858
0.0333001311774526
0.0284629700659019
0.0240932650261716
0.0201895890663629
0.0167428067750834
0.0137364095758297
0.0111472024160524
0.0089463102125111
0.0071004415105108
0.0055733207738418
0.0043271838030414
0.0033242261188887
0.0025279029011189
0.0019039999888683
0.0014214250257079
0.0010527010495191
0.0007741762880774
0.0005659890503132
0.0004118425623504
0.0002986506637194
0.0002161126430740
0.0001562666213111
0.0001130587173646
0.0000819524394176
0.0000595913002832
0.0000435186604026
0.0000319525773585
0.0000236097573275
0.0000175710358909
0.0000131805540987
0.0000099713871274
0.0000076113959626
0.0000058642115545
0.0000045613483506
0.0000035823911381
0.0000028409755404
0.0000022748922675
0.0000018391090766
0.0000015008488037
0.0000012361128629
0.0000010272200042
0.0000008610583874
0.0000007278395155
0.0000006202060551
0.0675423445722779
0.0605648446431791
0.0539187588027234
0.0476367383764332
0.0417476118352529
0.0362753884178384
0.0312383414746703
0.0266482358346130
0.0225097640887167
0.0188202507243781
0.0155696696363482
0.0127409997585007
0.0103109167211193
0.0082507882094710
0.0065279108957020
0.0051069018619169
0.0039511415344869
0.0030241613494333
0.0022908787264745
0.0017186031099153
0.0012777662757458
0.0009423627748603
0.0006901169344075
0.0005024168142213
0.0003640702403011
0.0002629429709297
0.0001895355389687
0.0001365459174588
0.0000984528265270
0.0000711418666871
0.0000515855976542
0.0000375801711732
0.0000275353943772
0.0000203118476108
0.0000150973456401
0.0000113149970120
0.0000085558408948
0.0000065301136036
0.0000050323452563
0.0000039165532458
0.0000030787099311
0.0000024443974010
0.0000019601325582
0.0000015872750238
0.0000012977460685
0.0000010710149498
0.0000008919717605
0.0000007494208048
0.0000006350090808
0.0000005424606543
0.0638469165552989
0.0571631743709745
0.0508083740672600
0.0448127406070861
0.0392026941240295
0.0339999176663701
0.0292205070888384
0.0248742641583387
0.0209641941378722
0.0174862630059548
0.0144294562272430
0.0117761607146775
0.0095028656287411
0.0075811485654450
0.0059788852182072
0.0046615970599373
0.0035938370380405
0.0027405105897505
0.0020680393816584
0.0015452966088247
0.0011442718411560
0.0008404552728229
0.0006129605769043
0.0004444281140363
0.0003207635352110
0.0002307705215790
0.0001657320178077
0.0001189844721628
0.0000855172301041
0.0000616168807267
0.0000445657740798
0.0000323959755505
0.0000236947236893
0.0000174546471205
0.0000129609857425
0.0000097082360776
0.0000073394769188
0.0000056027443823
0.0000043199672170
0.0000033650069784
0.0000026482148324
0.0000021056071264
0.0000016912909690
0.0000013721651904
0.0000011242093292
0.0000009298792653
0.0000007762739604
0.0000006538400943
0.0000005554527120
0.0000004757594974
0.0602712565262636
0.0538706188600992
0.0477972504069196
0.0420789484688654
0.0367397021526654
0.0317988260848096
0.0272701801175123
0.0231615327080449
0.0194741252856846
0.0162024885093802
0.0133345481251138
0.0108520383177616
0.0087312153504592
0.0069438364758897
0.0054583422132977
0.0042411582520881
0.0032580203226323
0.0024752240330189
0.0018607126239592
0.0013849372590674
0.0010214531849173
0.0007472459241849
0.0005428095369714
0.0003920198637411
0.0002818573569850
0.0002020365136862
0.0001445936845435
0.0001034748348599
0.0000741525474440
0.0000532896122550
0.0000384565425305
0.0000279030215315
0.0000203786409582
0.0000149959225812
0.0000111279128439
0.0000083330013253
0.0000063005395525
0.0000048119708249
0.0000037133029282
0.0000028957475911
0.0000022821687440
0.0000018176243304
0.0000014627735112
0.0000011892804222
0.0000009766053522
0.0000008097590072
0.0000006777255138
0.0000005723504599
0.0000004875531229
0.0000004187654439
0.0568582028692976
0.0507268800739170
0.0449218458877408
0.0394685118816248
0.0343884597258051
0.0296986412483550
0.0254106695187921
0.0215302551957774
0.0180568412987398
0.0149834827059992
0.0122970034224159
0.0099784452504547
0.0080037973123276
0.0063449694584935
0.0049709474724516
0.0038490480926419
0.0029461808252418
0.0022300237124436
0.0016700321257025
0.0012382215292316
0.0009096933087903
0.0006629023445557
0.0004796911777466
0.0003451346384647
0.0002472487790998
0.0001766190335275
0.0001259964823982
0.0000899006418729
0.0000642551027141
0.0000460709034389
0.0000331831643281
0.0000240398276921
0.0000175372719645
0.0000128956270725
0.0000095662030611
0.0000071639667366
0.0000054189938048
0.0000041419621824
0.0000031998411183
0.0000024988739675
0.0000019727182770
0.0000015742008531
0.0000012695909278
0.0000010346201813
0.0000008517118722
0.0000007080463146
0.0000005942052668
0.0000005032177822
0.0000004298852509